
     Program PWSCF v.7.1 starts on  6Oct2025 at 15:49:11 

     This program is part of the open-source Quantum ESPRESSO suite
     for quantum simulation of materials; please cite
         "P. Giannozzi et al., J. Phys.:Condens. Matter 21 395502 (2009);
         "P. Giannozzi et al., J. Phys.:Condens. Matter 29 465901 (2017);
         "P. Giannozzi et al., J. Chem. Phys. 152 154105 (2020);
          URL http://www.quantum-espresso.org", 
     in publications or presentations arising from this work. More details at
     http://www.quantum-espresso.org/quote

     Parallel version (MPI), running on    20 processors

     MPI processes distributed on     1 nodes
     61283 MiB available memory on the printing compute node when the environment starts
 
     Reading input from scf.in

     Current dimensions of program PWSCF are:
     Max number of different atomic species (ntypx) = 10
     Max number of k-points (npk) =  40000
     Max angular momentum in pseudopotentials (lmaxx) =  4
     file Co.pbe-spn-kjpaw_psl.0.3.1.UPF: wavefunction(s)  3P 3D renormalized
     file Fe.pbe-spn-kjpaw_psl.1.0.0.UPF: wavefunction(s)  3P 3D renormalized
     file Sn.pbe-dn-kjpaw_psl.1.0.0.UPF: wavefunction(s)  5S 5P 4D renormalized
 
     R & G space division:  proc/nbgrp/npool/nimage =      20
     Subspace diagonalization in iterative solution of the eigenvalue problem:
     a serial algorithm will be used

 
     Parallelization info
     --------------------
     sticks:   dense  smooth     PW     G-vecs:    dense   smooth      PW
     Min         167      83     24                 6419     2261     355
     Max         168      84     26                 6424     2265     357
     Sum        3355    1663    499               128421    45239    7119
 
     Using Slab Decomposition
 


     bravais-lattice index     =           14
     lattice parameter (alat)  =       7.8036  a.u.
     unit-cell volume          =     336.0264 (a.u.)^3
     number of atoms/cell      =            4
     number of atomic types    =            3
     number of electrons       =        64.00
     number of Kohn-Sham states=           38
     kinetic-energy cutoff     =     100.0000  Ry
     charge density cutoff     =     800.0000  Ry
     scf convergence threshold =      1.0E-08
     mixing beta               =       0.2000
     number of iterations used =            8  local-TF  mixing
     Exchange-correlation= SLA  PW   PBX  PBC
                           (   1   4   3   4   0   0   0)

     celldm(1)=   7.803620  celldm(2)=   1.000000  celldm(3)=   1.000000
     celldm(4)=   0.500000  celldm(5)=   0.500000  celldm(6)=   0.500000

     crystal axes: (cart. coord. in units of alat)
               a(1) = (   1.000000   0.000000   0.000000 )  
               a(2) = (   0.500000   0.866025   0.000000 )  
               a(3) = (   0.500000   0.288675   0.816497 )  

     reciprocal axes: (cart. coord. in units 2 pi/alat)
               b(1) = (  1.000000 -0.577350 -0.408248 )  
               b(2) = (  0.000000  1.154701 -0.408248 )  
               b(3) = (  0.000000  0.000000  1.224745 )  


     PseudoPot. # 1 for Co read from file:
     <HPC_PATH>
     MD5 check sum: 3c0a43779828c046024e4f3be63f8e67
     Pseudo is Projector augmented-wave + core cor, Zval = 17.0
     Generated using &quot;atomic&quot; code by A. Dal Corso  v.6.2.2
     Shape of augmentation charge: PSQ
     Using radial grid of 1193 points,  6 beta functions with: 
                l(1) =   0
                l(2) =   0
                l(3) =   1
                l(4) =   1
                l(5) =   2
                l(6) =   2
     Q(r) pseudized with 0 coefficients 


     PseudoPot. # 2 for Fe read from file:
     <HPC_PATH>
     MD5 check sum: fc81f059e5c5069939230b1155715ae8
     Pseudo is Projector augmented-wave + core cor, Zval = 16.0
     Generated using &quot;atomic&quot; code by A. Dal Corso  v.6.3
     Shape of augmentation charge: PSQ
     Using radial grid of 1191 points,  6 beta functions with: 
                l(1) =   0
                l(2) =   0
                l(3) =   1
                l(4) =   1
                l(5) =   2
                l(6) =   2
     Q(r) pseudized with 0 coefficients 


     PseudoPot. # 3 for Sn read from file:
     <HPC_PATH>
     MD5 check sum: 67f11dec737d427557dc41ea34975807
     Pseudo is Projector augmented-wave + core cor, Zval = 14.0
     Generated using &quot;atomic&quot; code by A. Dal Corso  v.6.3
     Shape of augmentation charge: PSQ
     Using radial grid of 1243 points,  6 beta functions with: 
                l(1) =   0
                l(2) =   0
                l(3) =   1
                l(4) =   1
                l(5) =   2
                l(6) =   2
     Q(r) pseudized with 0 coefficients 


     atomic species   valence    mass     pseudopotential
        Co            17.00    58.93300     Co( 1.00)
        Fe            16.00    55.84500     Fe( 1.00)
        Sn            14.00   118.71000     Sn( 1.00)

     Starting magnetic structure 
     atomic species   magnetization
        Co           0.500
        Fe           0.500
        Sn           0.000

     12 Sym. Ops., with inversion, found


                                    s                        frac. trans.

      isym =  1     identity                                     

 cryst.   s( 1) = (     1          0          0      )
                  (     0          1          0      )
                  (     0          0          1      )

 cart.    s( 1) = (  1.0000000  0.0000000  0.0000000 )
                  (  0.0000000  1.0000000  0.0000000 )
                  (  0.0000000  0.0000000  1.0000000 )


      isym =  2     180 deg rotation - cart. axis [1,0,0]        

 cryst.   s( 2) = (     1          0          0      )
                  (     1         -1          0      )
                  (     1          0         -1      )

 cart.    s( 2) = (  1.0000000  0.0000000  0.0000000 )
                  (  0.0000000 -1.0000000  0.0000000 )
                  (  0.0000000  0.0000000 -1.0000000 )


      isym =  3     120 deg rotation - cryst. axis [0,0,1]       

 cryst.   s( 3) = (    -1          1          0      )
                  (    -1          0          0      )
                  (    -1          0          1      )

 cart.    s( 3) = ( -0.5000000 -0.8660254  0.0000000 )
                  (  0.8660254 -0.5000000  0.0000000 )
                  (  0.0000000  0.0000000  1.0000000 )


      isym =  4     120 deg rotation - cryst. axis [0,0,-1]      

 cryst.   s( 4) = (     0         -1          0      )
                  (     1         -1          0      )
                  (     0         -1          1      )

 cart.    s( 4) = ( -0.5000000  0.8660254 -0.0000000 )
                  ( -0.8660254 -0.5000000  0.0000000 )
                  (  0.0000000  0.0000000  1.0000000 )


      isym =  5     180 deg rotation - cryst. axis [0,1,0]       

 cryst.   s( 5) = (     0         -1          0      )
                  (    -1          0          0      )
                  (     0          0         -1      )

 cart.    s( 5) = ( -0.5000000 -0.8660254  0.0000000 )
                  ( -0.8660254  0.5000000 -0.0000000 )
                  (  0.0000000  0.0000000 -1.0000000 )


      isym =  6     180 deg rotation - cryst. axis [1,1,0]       

 cryst.   s( 6) = (    -1          1          0      )
                  (     0          1          0      )
                  (     0          1         -1      )

 cart.    s( 6) = ( -0.5000000  0.8660254 -0.0000000 )
                  (  0.8660254  0.5000000 -0.0000000 )
                  (  0.0000000  0.0000000 -1.0000000 )


      isym =  7     inversion                                    

 cryst.   s( 7) = (    -1          0          0      )
                  (     0         -1          0      )
                  (     0          0         -1      )

 cart.    s( 7) = ( -1.0000000  0.0000000  0.0000000 )
                  (  0.0000000 -1.0000000  0.0000000 )
                  (  0.0000000  0.0000000 -1.0000000 )


      isym =  8     inv. 180 deg rotation - cart. axis [1,0,0]   

 cryst.   s( 8) = (    -1          0          0      )
                  (    -1          1          0      )
                  (    -1          0          1      )

 cart.    s( 8) = ( -1.0000000  0.0000000  0.0000000 )
                  (  0.0000000  1.0000000  0.0000000 )
                  (  0.0000000  0.0000000  1.0000000 )


      isym =  9     inv. 120 deg rotation - cryst. axis [0,0,1]  

 cryst.   s( 9) = (     1         -1          0      )
                  (     1          0          0      )
                  (     1          0         -1      )

 cart.    s( 9) = (  0.5000000  0.8660254 -0.0000000 )
                  ( -0.8660254  0.5000000 -0.0000000 )
                  (  0.0000000  0.0000000 -1.0000000 )


      isym = 10     inv. 120 deg rotation - cryst. axis [0,0,-1] 

 cryst.   s(10) = (     0          1          0      )
                  (    -1          1          0      )
                  (     0          1         -1      )

 cart.    s(10) = (  0.5000000 -0.8660254  0.0000000 )
                  (  0.8660254  0.5000000 -0.0000000 )
                  (  0.0000000  0.0000000 -1.0000000 )


      isym = 11     inv. 180 deg rotation - cryst. axis [0,1,0]  

 cryst.   s(11) = (     0          1          0      )
                  (     1          0          0      )
                  (     0          0          1      )

 cart.    s(11) = (  0.5000000  0.8660254 -0.0000000 )
                  (  0.8660254 -0.5000000  0.0000000 )
                  (  0.0000000  0.0000000  1.0000000 )


      isym = 12     inv. 180 deg rotation - cryst. axis [1,1,0]  

 cryst.   s(12) = (     1         -1          0      )
                  (     0         -1          0      )
                  (     0         -1          1      )

 cart.    s(12) = (  0.5000000 -0.8660254  0.0000000 )
                  ( -0.8660254 -0.5000000  0.0000000 )
                  (  0.0000000  0.0000000  1.0000000 )


     point group D_3d (-3m) 
     there are  6 classes
     the character table:

       E     2C3   3C2'  i     2S6   3s_d 
A_1g   1.00  1.00  1.00  1.00  1.00  1.00
A_2g   1.00  1.00 -1.00  1.00  1.00 -1.00
E_g    2.00 -1.00  0.00  2.00 -1.00  0.00
A_1u   1.00  1.00  1.00 -1.00 -1.00 -1.00
A_2u   1.00  1.00 -1.00 -1.00 -1.00  1.00
E_u    2.00 -1.00  0.00 -2.00  1.00  0.00

     the symmetry operations in each class and the name of the first element:

     E        1
          identity                                               
     2C3      3    4
          120 deg rotation - cryst. axis [0,0,1]                 
     3C2'     2    5    6
          180 deg rotation - cart. axis [1,0,0]                  
     i        7
          inversion                                              
     2S6      9   10
          inv. 120 deg rotation - cryst. axis [0,0,1]            
     3s_d     8   11   12
          inv. 180 deg rotation - cart. axis [1,0,0]             

   Cartesian axes

     site n.     atom                  positions (alat units)
         1           Fe  tau(   1) = (   1.0000000   0.5773503   0.4082483  )
         2           Sn  tau(   2) = (   0.0000000   0.0000000   0.0000000  )
         3           Co  tau(   3) = (   0.5000000   0.2886751   0.2041241  )
         4           Co  tau(   4) = (   1.5000000   0.8660254   0.6123724  )

   Crystallographic axes

     site n.     atom                  positions (cryst. coord.)
         1           Fe  tau(   1) = (  0.5000000  0.5000000  0.5000000  )
         2           Sn  tau(   2) = (  0.0000000  0.0000000  0.0000000  )
         3           Co  tau(   3) = (  0.2500000  0.2500000  0.2500000  )
         4           Co  tau(   4) = (  0.7500000  0.7500000  0.7500000  )

     number of k points=   189  Gaussian smearing, width (Ry)=  0.0200
                       cart. coord. in units 2pi/alat
        k(    1) = (   0.0000000   0.0000000   0.0000000), wk =   0.0005787
        k(    2) = (   0.0000000   0.0000000   0.1020621), wk =   0.0011574
        k(    3) = (   0.0000000   0.0000000   0.2041241), wk =   0.0011574
        k(    4) = (   0.0000000   0.0000000   0.3061862), wk =   0.0011574
        k(    5) = (   0.0000000   0.0000000   0.4082483), wk =   0.0011574
        k(    6) = (   0.0000000   0.0000000   0.5103104), wk =   0.0011574
        k(    7) = (   0.0000000   0.0000000  -0.6123724), wk =   0.0005787
        k(    8) = (   0.0000000   0.0962250  -0.0340207), wk =   0.0034722
        k(    9) = (   0.0000000   0.0962250   0.0680414), wk =   0.0034722
        k(   10) = (   0.0000000   0.0962250   0.1701035), wk =   0.0034722
        k(   11) = (   0.0000000   0.0962250   0.2721655), wk =   0.0034722
        k(   12) = (   0.0000000   0.0962250   0.3742276), wk =   0.0034722
        k(   13) = (   0.0000000   0.0962250   0.4762897), wk =   0.0034722
        k(   14) = (   0.0000000   0.0962250  -0.6463931), wk =   0.0034722
        k(   15) = (   0.0000000   0.0962250  -0.5443311), wk =   0.0034722
        k(   16) = (   0.0000000   0.0962250  -0.4422690), wk =   0.0034722
        k(   17) = (   0.0000000   0.0962250  -0.3402069), wk =   0.0034722
        k(   18) = (   0.0000000   0.0962250  -0.2381448), wk =   0.0034722
        k(   19) = (   0.0000000   0.0962250  -0.1360828), wk =   0.0034722
        k(   20) = (   0.0000000   0.1924501  -0.0680414), wk =   0.0034722
        k(   21) = (   0.0000000   0.1924501   0.0340207), wk =   0.0034722
        k(   22) = (   0.0000000   0.1924501   0.1360828), wk =   0.0034722
        k(   23) = (   0.0000000   0.1924501   0.2381448), wk =   0.0034722
        k(   24) = (   0.0000000   0.1924501   0.3402069), wk =   0.0034722
        k(   25) = (   0.0000000   0.1924501   0.4422690), wk =   0.0034722
        k(   26) = (   0.0000000   0.1924501  -0.6804138), wk =   0.0034722
        k(   27) = (   0.0000000   0.1924501  -0.5783517), wk =   0.0034722
        k(   28) = (   0.0000000   0.1924501  -0.4762897), wk =   0.0034722
        k(   29) = (   0.0000000   0.1924501  -0.3742276), wk =   0.0034722
        k(   30) = (   0.0000000   0.1924501  -0.2721655), wk =   0.0034722
        k(   31) = (   0.0000000   0.1924501  -0.1701035), wk =   0.0034722
        k(   32) = (   0.0000000   0.2886751  -0.1020621), wk =   0.0034722
        k(   33) = (   0.0000000   0.2886751  -0.0000000), wk =   0.0034722
        k(   34) = (   0.0000000   0.2886751   0.1020621), wk =   0.0034722
        k(   35) = (   0.0000000   0.2886751   0.2041241), wk =   0.0034722
        k(   36) = (   0.0000000   0.2886751   0.3061862), wk =   0.0034722
        k(   37) = (   0.0000000   0.2886751   0.4082483), wk =   0.0034722
        k(   38) = (   0.0000000   0.2886751  -0.7144345), wk =   0.0034722
        k(   39) = (   0.0000000   0.2886751  -0.6123724), wk =   0.0034722
        k(   40) = (   0.0000000   0.2886751  -0.5103104), wk =   0.0034722
        k(   41) = (   0.0000000   0.2886751  -0.4082483), wk =   0.0034722
        k(   42) = (   0.0000000   0.2886751  -0.3061862), wk =   0.0034722
        k(   43) = (   0.0000000   0.2886751  -0.2041241), wk =   0.0034722
        k(   44) = (   0.0000000   0.3849002  -0.1360828), wk =   0.0034722
        k(   45) = (   0.0000000   0.3849002  -0.0340207), wk =   0.0034722
        k(   46) = (   0.0000000   0.3849002   0.0680414), wk =   0.0034722
        k(   47) = (   0.0000000   0.3849002   0.1701035), wk =   0.0034722
        k(   48) = (   0.0000000   0.3849002   0.2721655), wk =   0.0034722
        k(   49) = (   0.0000000   0.3849002   0.3742276), wk =   0.0034722
        k(   50) = (   0.0000000   0.3849002  -0.7484552), wk =   0.0034722
        k(   51) = (   0.0000000   0.3849002  -0.6463931), wk =   0.0034722
        k(   52) = (   0.0000000   0.3849002  -0.5443311), wk =   0.0034722
        k(   53) = (   0.0000000   0.3849002  -0.4422690), wk =   0.0034722
        k(   54) = (   0.0000000   0.3849002  -0.3402069), wk =   0.0034722
        k(   55) = (   0.0000000   0.3849002  -0.2381448), wk =   0.0034722
        k(   56) = (   0.0000000   0.4811252  -0.1701035), wk =   0.0034722
        k(   57) = (   0.0000000   0.4811252  -0.0680414), wk =   0.0034722
        k(   58) = (   0.0000000   0.4811252   0.0340207), wk =   0.0034722
        k(   59) = (   0.0000000   0.4811252   0.1360828), wk =   0.0034722
        k(   60) = (   0.0000000   0.4811252   0.2381448), wk =   0.0034722
        k(   61) = (   0.0000000   0.4811252   0.3402069), wk =   0.0034722
        k(   62) = (   0.0000000   0.4811252  -0.7824759), wk =   0.0034722
        k(   63) = (   0.0000000   0.4811252  -0.6804138), wk =   0.0034722
        k(   64) = (   0.0000000   0.4811252  -0.5783517), wk =   0.0034722
        k(   65) = (   0.0000000   0.4811252  -0.4762897), wk =   0.0034722
        k(   66) = (   0.0000000   0.4811252  -0.3742276), wk =   0.0034722
        k(   67) = (   0.0000000   0.4811252  -0.2721655), wk =   0.0034722
        k(   68) = (   0.0000000  -0.5773503   0.2041241), wk =   0.0017361
        k(   69) = (   0.0000000  -0.5773503   0.3061862), wk =   0.0034722
        k(   70) = (   0.0000000  -0.5773503   0.4082483), wk =   0.0034722
        k(   71) = (   0.0000000  -0.5773503   0.5103104), wk =   0.0034722
        k(   72) = (   0.0000000  -0.5773503   0.6123724), wk =   0.0034722
        k(   73) = (   0.0000000  -0.5773503   0.7144345), wk =   0.0034722
        k(   74) = (   0.0000000  -0.5773503  -0.4082483), wk =   0.0017361
        k(   75) = (   0.0833333   0.1443376  -0.1020621), wk =   0.0069444
        k(   76) = (   0.0833333   0.1443376  -0.0000000), wk =   0.0034722
        k(   77) = (   0.0833333   0.1443376   0.2041241), wk =   0.0069444
        k(   78) = (   0.0833333   0.1443376   0.3061862), wk =   0.0069444
        k(   79) = (   0.0833333   0.1443376   0.4082483), wk =   0.0069444
        k(   80) = (   0.0833333   0.1443376  -0.7144345), wk =   0.0069444
        k(   81) = (   0.0833333   0.1443376  -0.6123724), wk =   0.0034722
        k(   82) = (   0.0833333   0.2405626  -0.1360828), wk =   0.0069444
        k(   83) = (   0.0833333   0.2405626  -0.0340207), wk =   0.0069444
        k(   84) = (   0.0833333   0.2405626   0.0680414), wk =   0.0069444
        k(   85) = (   0.0833333   0.2405626   0.1701035), wk =   0.0069444
        k(   86) = (   0.0833333   0.2405626   0.2721655), wk =   0.0069444
        k(   87) = (   0.0833333   0.2405626   0.3742276), wk =   0.0069444
        k(   88) = (   0.0833333   0.2405626  -0.7484552), wk =   0.0069444
        k(   89) = (   0.0833333   0.2405626  -0.6463931), wk =   0.0069444
        k(   90) = (   0.0833333   0.2405626  -0.5443311), wk =   0.0069444
        k(   91) = (   0.0833333   0.2405626  -0.4422690), wk =   0.0069444
        k(   92) = (   0.0833333   0.2405626  -0.3402069), wk =   0.0069444
        k(   93) = (   0.0833333   0.2405626  -0.2381448), wk =   0.0069444
        k(   94) = (   0.0833333   0.3367877  -0.1701035), wk =   0.0069444
        k(   95) = (   0.0833333   0.3367877  -0.0680414), wk =   0.0069444
        k(   96) = (   0.0833333   0.3367877   0.0340207), wk =   0.0069444
        k(   97) = (   0.0833333   0.3367877   0.1360828), wk =   0.0069444
        k(   98) = (   0.0833333   0.3367877   0.2381448), wk =   0.0069444
        k(   99) = (   0.0833333   0.3367877   0.3402069), wk =   0.0069444
        k(  100) = (   0.0833333   0.3367877  -0.7824759), wk =   0.0069444
        k(  101) = (   0.0833333   0.3367877  -0.6804138), wk =   0.0069444
        k(  102) = (   0.0833333   0.3367877  -0.5783517), wk =   0.0069444
        k(  103) = (   0.0833333   0.3367877  -0.4762897), wk =   0.0069444
        k(  104) = (   0.0833333   0.3367877  -0.3742276), wk =   0.0069444
        k(  105) = (   0.0833333   0.3367877  -0.2721655), wk =   0.0069444
        k(  106) = (   0.0833333   0.4330127  -0.2041241), wk =   0.0069444
        k(  107) = (   0.0833333   0.4330127  -0.1020621), wk =   0.0069444
        k(  108) = (   0.0833333   0.4330127  -0.0000000), wk =   0.0069444
        k(  109) = (   0.0833333   0.4330127   0.1020621), wk =   0.0069444
        k(  110) = (   0.0833333   0.4330127   0.2041241), wk =   0.0069444
        k(  111) = (   0.0833333   0.4330127   0.3061862), wk =   0.0069444
        k(  112) = (   0.0833333   0.4330127  -0.8164966), wk =   0.0069444
        k(  113) = (   0.0833333   0.4330127  -0.7144345), wk =   0.0069444
        k(  114) = (   0.0833333   0.4330127  -0.6123724), wk =   0.0069444
        k(  115) = (   0.0833333   0.4330127  -0.5103104), wk =   0.0069444
        k(  116) = (   0.0833333   0.4330127  -0.4082483), wk =   0.0069444
        k(  117) = (   0.0833333   0.4330127  -0.3061862), wk =   0.0069444
        k(  118) = (   0.0833333  -0.6254628   0.1701035), wk =   0.0069444
        k(  119) = (   0.0833333  -0.6254628   0.2721655), wk =   0.0069444
        k(  120) = (   0.0833333  -0.6254628   0.3742276), wk =   0.0069444
        k(  121) = (   0.0833333  -0.6254628   0.4762897), wk =   0.0069444
        k(  122) = (   0.0833333  -0.6254628   0.5783517), wk =   0.0069444
        k(  123) = (   0.0833333  -0.6254628   0.6804138), wk =   0.0069444
        k(  124) = (   0.0833333  -0.6254628  -0.4422690), wk =   0.0069444
        k(  125) = (   0.0833333  -0.6254628  -0.3402069), wk =   0.0069444
        k(  126) = (   0.0833333  -0.6254628  -0.2381448), wk =   0.0069444
        k(  127) = (   0.0833333  -0.6254628  -0.1360828), wk =   0.0069444
        k(  128) = (   0.0833333  -0.6254628  -0.0340207), wk =   0.0069444
        k(  129) = (   0.0833333  -0.6254628   0.0680414), wk =   0.0069444
        k(  130) = (   0.1666667   0.2886751  -0.2041241), wk =   0.0069444
        k(  131) = (   0.1666667   0.2886751  -0.1020621), wk =   0.0069444
        k(  132) = (   0.1666667   0.2886751  -0.0000000), wk =   0.0034722
        k(  133) = (   0.1666667   0.2886751   0.3061862), wk =   0.0069444
        k(  134) = (   0.1666667   0.2886751  -0.8164966), wk =   0.0069444
        k(  135) = (   0.1666667   0.2886751  -0.7144345), wk =   0.0069444
        k(  136) = (   0.1666667   0.2886751  -0.6123724), wk =   0.0034722
        k(  137) = (   0.1666667   0.3849002  -0.2381448), wk =   0.0069444
        k(  138) = (   0.1666667   0.3849002  -0.1360828), wk =   0.0069444
        k(  139) = (   0.1666667   0.3849002  -0.0340207), wk =   0.0069444
        k(  140) = (   0.1666667   0.3849002   0.0680414), wk =   0.0069444
        k(  141) = (   0.1666667   0.3849002   0.1701035), wk =   0.0069444
        k(  142) = (   0.1666667   0.3849002   0.2721655), wk =   0.0069444
        k(  143) = (   0.1666667   0.3849002  -0.8505173), wk =   0.0069444
        k(  144) = (   0.1666667   0.3849002  -0.7484552), wk =   0.0069444
        k(  145) = (   0.1666667   0.3849002  -0.6463931), wk =   0.0069444
        k(  146) = (   0.1666667   0.3849002  -0.5443311), wk =   0.0069444
        k(  147) = (   0.1666667   0.3849002  -0.4422690), wk =   0.0069444
        k(  148) = (   0.1666667   0.3849002  -0.3402069), wk =   0.0069444
        k(  149) = (   0.1666667  -0.6735753   0.1360828), wk =   0.0069444
        k(  150) = (   0.1666667  -0.6735753   0.2381448), wk =   0.0069444
        k(  151) = (   0.1666667  -0.6735753   0.3402069), wk =   0.0069444
        k(  152) = (   0.1666667  -0.6735753   0.4422690), wk =   0.0069444
        k(  153) = (   0.1666667  -0.6735753   0.5443311), wk =   0.0069444
        k(  154) = (   0.1666667  -0.6735753   0.6463931), wk =   0.0069444
        k(  155) = (   0.1666667  -0.6735753  -0.4762897), wk =   0.0069444
        k(  156) = (   0.1666667  -0.6735753  -0.3742276), wk =   0.0069444
        k(  157) = (   0.1666667  -0.6735753  -0.2721655), wk =   0.0069444
        k(  158) = (   0.1666667  -0.6735753  -0.1701035), wk =   0.0069444
        k(  159) = (   0.1666667  -0.6735753  -0.0680414), wk =   0.0069444
        k(  160) = (   0.1666667  -0.6735753   0.0340207), wk =   0.0069444
        k(  161) = (   0.1666667  -0.5773503   0.1020621), wk =   0.0069444
        k(  162) = (   0.1666667  -0.5773503   0.2041241), wk =   0.0034722
        k(  163) = (   0.1666667  -0.5773503   0.4082483), wk =   0.0069444
        k(  164) = (   0.1666667  -0.5773503   0.5103104), wk =   0.0069444
        k(  165) = (   0.1666667  -0.5773503   0.6123724), wk =   0.0069444
        k(  166) = (   0.1666667  -0.5773503  -0.5103104), wk =   0.0069444
        k(  167) = (   0.1666667  -0.5773503  -0.4082483), wk =   0.0034722
        k(  168) = (   0.2500000  -0.7216878   0.1020621), wk =   0.0069444
        k(  169) = (   0.2500000  -0.7216878   0.2041241), wk =   0.0069444
        k(  170) = (   0.2500000  -0.7216878   0.3061862), wk =   0.0069444
        k(  171) = (   0.2500000  -0.7216878   0.4082483), wk =   0.0034722
        k(  172) = (   0.2500000  -0.7216878  -0.4082483), wk =   0.0069444
        k(  173) = (   0.2500000  -0.7216878  -0.3061862), wk =   0.0069444
        k(  174) = (   0.2500000  -0.7216878  -0.2041241), wk =   0.0034722
        k(  175) = (   0.2500000  -0.6254628   0.0680414), wk =   0.0069444
        k(  176) = (   0.2500000  -0.6254628   0.1701035), wk =   0.0069444
        k(  177) = (   0.2500000  -0.6254628   0.2721655), wk =   0.0069444
        k(  178) = (   0.2500000  -0.6254628   0.3742276), wk =   0.0069444
        k(  179) = (   0.2500000  -0.6254628   0.4762897), wk =   0.0069444
        k(  180) = (   0.2500000  -0.6254628   0.5783517), wk =   0.0069444
        k(  181) = (   0.2500000  -0.6254628  -0.5443311), wk =   0.0069444
        k(  182) = (   0.2500000  -0.6254628  -0.4422690), wk =   0.0069444
        k(  183) = (   0.2500000  -0.6254628  -0.3402069), wk =   0.0069444
        k(  184) = (   0.2500000  -0.6254628  -0.2381448), wk =   0.0069444
        k(  185) = (   0.2500000  -0.6254628  -0.1360828), wk =   0.0069444
        k(  186) = (   0.2500000  -0.6254628  -0.0340207), wk =   0.0069444
        k(  187) = (   0.3333333  -0.5773503   0.0000000), wk =   0.0034722
        k(  188) = (   0.3333333  -0.5773503   0.1020621), wk =   0.0069444
        k(  189) = (   0.3333333  -0.5773503   0.2041241), wk =   0.0034722

                       cryst. coord.
        k(    1) = (   0.0000000   0.0000000   0.0000000), wk =   0.0005787
        k(    2) = (   0.0000000   0.0000000   0.0833333), wk =   0.0011574
        k(    3) = (   0.0000000   0.0000000   0.1666667), wk =   0.0011574
        k(    4) = (   0.0000000   0.0000000   0.2500000), wk =   0.0011574
        k(    5) = (   0.0000000   0.0000000   0.3333333), wk =   0.0011574
        k(    6) = (   0.0000000   0.0000000   0.4166667), wk =   0.0011574
        k(    7) = (   0.0000000   0.0000000  -0.5000000), wk =   0.0005787
        k(    8) = (   0.0000000   0.0833333   0.0000000), wk =   0.0034722
        k(    9) = (   0.0000000   0.0833333   0.0833333), wk =   0.0034722
        k(   10) = (   0.0000000   0.0833333   0.1666667), wk =   0.0034722
        k(   11) = (   0.0000000   0.0833333   0.2500000), wk =   0.0034722
        k(   12) = (   0.0000000   0.0833333   0.3333333), wk =   0.0034722
        k(   13) = (   0.0000000   0.0833333   0.4166667), wk =   0.0034722
        k(   14) = (   0.0000000   0.0833333  -0.5000000), wk =   0.0034722
        k(   15) = (   0.0000000   0.0833333  -0.4166667), wk =   0.0034722
        k(   16) = (   0.0000000   0.0833333  -0.3333333), wk =   0.0034722
        k(   17) = (   0.0000000   0.0833333  -0.2500000), wk =   0.0034722
        k(   18) = (   0.0000000   0.0833333  -0.1666667), wk =   0.0034722
        k(   19) = (   0.0000000   0.0833333  -0.0833333), wk =   0.0034722
        k(   20) = (   0.0000000   0.1666667   0.0000000), wk =   0.0034722
        k(   21) = (   0.0000000   0.1666667   0.0833333), wk =   0.0034722
        k(   22) = (   0.0000000   0.1666667   0.1666667), wk =   0.0034722
        k(   23) = (   0.0000000   0.1666667   0.2500000), wk =   0.0034722
        k(   24) = (   0.0000000   0.1666667   0.3333333), wk =   0.0034722
        k(   25) = (   0.0000000   0.1666667   0.4166667), wk =   0.0034722
        k(   26) = (   0.0000000   0.1666667  -0.5000000), wk =   0.0034722
        k(   27) = (   0.0000000   0.1666667  -0.4166667), wk =   0.0034722
        k(   28) = (   0.0000000   0.1666667  -0.3333333), wk =   0.0034722
        k(   29) = (   0.0000000   0.1666667  -0.2500000), wk =   0.0034722
        k(   30) = (   0.0000000   0.1666667  -0.1666667), wk =   0.0034722
        k(   31) = (   0.0000000   0.1666667  -0.0833333), wk =   0.0034722
        k(   32) = (   0.0000000   0.2500000   0.0000000), wk =   0.0034722
        k(   33) = (   0.0000000   0.2500000   0.0833333), wk =   0.0034722
        k(   34) = (   0.0000000   0.2500000   0.1666667), wk =   0.0034722
        k(   35) = (   0.0000000   0.2500000   0.2500000), wk =   0.0034722
        k(   36) = (   0.0000000   0.2500000   0.3333333), wk =   0.0034722
        k(   37) = (   0.0000000   0.2500000   0.4166667), wk =   0.0034722
        k(   38) = (   0.0000000   0.2500000  -0.5000000), wk =   0.0034722
        k(   39) = (   0.0000000   0.2500000  -0.4166667), wk =   0.0034722
        k(   40) = (   0.0000000   0.2500000  -0.3333333), wk =   0.0034722
        k(   41) = (   0.0000000   0.2500000  -0.2500000), wk =   0.0034722
        k(   42) = (   0.0000000   0.2500000  -0.1666667), wk =   0.0034722
        k(   43) = (   0.0000000   0.2500000  -0.0833333), wk =   0.0034722
        k(   44) = (   0.0000000   0.3333333   0.0000000), wk =   0.0034722
        k(   45) = (   0.0000000   0.3333333   0.0833333), wk =   0.0034722
        k(   46) = (   0.0000000   0.3333333   0.1666667), wk =   0.0034722
        k(   47) = (   0.0000000   0.3333333   0.2500000), wk =   0.0034722
        k(   48) = (   0.0000000   0.3333333   0.3333333), wk =   0.0034722
        k(   49) = (   0.0000000   0.3333333   0.4166667), wk =   0.0034722
        k(   50) = (   0.0000000   0.3333333  -0.5000000), wk =   0.0034722
        k(   51) = (   0.0000000   0.3333333  -0.4166667), wk =   0.0034722
        k(   52) = (   0.0000000   0.3333333  -0.3333333), wk =   0.0034722
        k(   53) = (   0.0000000   0.3333333  -0.2500000), wk =   0.0034722
        k(   54) = (   0.0000000   0.3333333  -0.1666667), wk =   0.0034722
        k(   55) = (   0.0000000   0.3333333  -0.0833333), wk =   0.0034722
        k(   56) = (   0.0000000   0.4166667   0.0000000), wk =   0.0034722
        k(   57) = (   0.0000000   0.4166667   0.0833333), wk =   0.0034722
        k(   58) = (   0.0000000   0.4166667   0.1666667), wk =   0.0034722
        k(   59) = (   0.0000000   0.4166667   0.2500000), wk =   0.0034722
        k(   60) = (   0.0000000   0.4166667   0.3333333), wk =   0.0034722
        k(   61) = (   0.0000000   0.4166667   0.4166667), wk =   0.0034722
        k(   62) = (   0.0000000   0.4166667  -0.5000000), wk =   0.0034722
        k(   63) = (   0.0000000   0.4166667  -0.4166667), wk =   0.0034722
        k(   64) = (   0.0000000   0.4166667  -0.3333333), wk =   0.0034722
        k(   65) = (   0.0000000   0.4166667  -0.2500000), wk =   0.0034722
        k(   66) = (   0.0000000   0.4166667  -0.1666667), wk =   0.0034722
        k(   67) = (   0.0000000   0.4166667  -0.0833333), wk =   0.0034722
        k(   68) = (   0.0000000  -0.5000000   0.0000000), wk =   0.0017361
        k(   69) = (   0.0000000  -0.5000000   0.0833333), wk =   0.0034722
        k(   70) = (   0.0000000  -0.5000000   0.1666667), wk =   0.0034722
        k(   71) = (   0.0000000  -0.5000000   0.2500000), wk =   0.0034722
        k(   72) = (   0.0000000  -0.5000000   0.3333333), wk =   0.0034722
        k(   73) = (   0.0000000  -0.5000000   0.4166667), wk =   0.0034722
        k(   74) = (   0.0000000  -0.5000000  -0.5000000), wk =   0.0017361
        k(   75) = (   0.0833333   0.1666667   0.0000000), wk =   0.0069444
        k(   76) = (   0.0833333   0.1666667   0.0833333), wk =   0.0034722
        k(   77) = (   0.0833333   0.1666667   0.2500000), wk =   0.0069444
        k(   78) = (   0.0833333   0.1666667   0.3333333), wk =   0.0069444
        k(   79) = (   0.0833333   0.1666667   0.4166667), wk =   0.0069444
        k(   80) = (   0.0833333   0.1666667  -0.5000000), wk =   0.0069444
        k(   81) = (   0.0833333   0.1666667  -0.4166667), wk =   0.0034722
        k(   82) = (   0.0833333   0.2500000   0.0000000), wk =   0.0069444
        k(   83) = (   0.0833333   0.2500000   0.0833333), wk =   0.0069444
        k(   84) = (   0.0833333   0.2500000   0.1666667), wk =   0.0069444
        k(   85) = (   0.0833333   0.2500000   0.2500000), wk =   0.0069444
        k(   86) = (   0.0833333   0.2500000   0.3333333), wk =   0.0069444
        k(   87) = (   0.0833333   0.2500000   0.4166667), wk =   0.0069444
        k(   88) = (   0.0833333   0.2500000  -0.5000000), wk =   0.0069444
        k(   89) = (   0.0833333   0.2500000  -0.4166667), wk =   0.0069444
        k(   90) = (   0.0833333   0.2500000  -0.3333333), wk =   0.0069444
        k(   91) = (   0.0833333   0.2500000  -0.2500000), wk =   0.0069444
        k(   92) = (   0.0833333   0.2500000  -0.1666667), wk =   0.0069444
        k(   93) = (   0.0833333   0.2500000  -0.0833333), wk =   0.0069444
        k(   94) = (   0.0833333   0.3333333  -0.0000000), wk =   0.0069444
        k(   95) = (   0.0833333   0.3333333   0.0833333), wk =   0.0069444
        k(   96) = (   0.0833333   0.3333333   0.1666667), wk =   0.0069444
        k(   97) = (   0.0833333   0.3333333   0.2500000), wk =   0.0069444
        k(   98) = (   0.0833333   0.3333333   0.3333333), wk =   0.0069444
        k(   99) = (   0.0833333   0.3333333   0.4166667), wk =   0.0069444
        k(  100) = (   0.0833333   0.3333333  -0.5000000), wk =   0.0069444
        k(  101) = (   0.0833333   0.3333333  -0.4166667), wk =   0.0069444
        k(  102) = (   0.0833333   0.3333333  -0.3333333), wk =   0.0069444
        k(  103) = (   0.0833333   0.3333333  -0.2500000), wk =   0.0069444
        k(  104) = (   0.0833333   0.3333333  -0.1666667), wk =   0.0069444
        k(  105) = (   0.0833333   0.3333333  -0.0833333), wk =   0.0069444
        k(  106) = (   0.0833333   0.4166667  -0.0000000), wk =   0.0069444
        k(  107) = (   0.0833333   0.4166667   0.0833333), wk =   0.0069444
        k(  108) = (   0.0833333   0.4166667   0.1666667), wk =   0.0069444
        k(  109) = (   0.0833333   0.4166667   0.2500000), wk =   0.0069444
        k(  110) = (   0.0833333   0.4166667   0.3333333), wk =   0.0069444
        k(  111) = (   0.0833333   0.4166667   0.4166667), wk =   0.0069444
        k(  112) = (   0.0833333   0.4166667  -0.5000000), wk =   0.0069444
        k(  113) = (   0.0833333   0.4166667  -0.4166667), wk =   0.0069444
        k(  114) = (   0.0833333   0.4166667  -0.3333333), wk =   0.0069444
        k(  115) = (   0.0833333   0.4166667  -0.2500000), wk =   0.0069444
        k(  116) = (   0.0833333   0.4166667  -0.1666667), wk =   0.0069444
        k(  117) = (   0.0833333   0.4166667  -0.0833333), wk =   0.0069444
        k(  118) = (   0.0833333  -0.5000000   0.0000000), wk =   0.0069444
        k(  119) = (   0.0833333  -0.5000000   0.0833333), wk =   0.0069444
        k(  120) = (   0.0833333  -0.5000000   0.1666667), wk =   0.0069444
        k(  121) = (   0.0833333  -0.5000000   0.2500000), wk =   0.0069444
        k(  122) = (   0.0833333  -0.5000000   0.3333333), wk =   0.0069444
        k(  123) = (   0.0833333  -0.5000000   0.4166667), wk =   0.0069444
        k(  124) = (   0.0833333  -0.5000000  -0.5000000), wk =   0.0069444
        k(  125) = (   0.0833333  -0.5000000  -0.4166667), wk =   0.0069444
        k(  126) = (   0.0833333  -0.5000000  -0.3333333), wk =   0.0069444
        k(  127) = (   0.0833333  -0.5000000  -0.2500000), wk =   0.0069444
        k(  128) = (   0.0833333  -0.5000000  -0.1666667), wk =   0.0069444
        k(  129) = (   0.0833333  -0.5000000  -0.0833333), wk =   0.0069444
        k(  130) = (   0.1666667   0.3333333   0.0000000), wk =   0.0069444
        k(  131) = (   0.1666667   0.3333333   0.0833333), wk =   0.0069444
        k(  132) = (   0.1666667   0.3333333   0.1666667), wk =   0.0034722
        k(  133) = (   0.1666667   0.3333333   0.4166667), wk =   0.0069444
        k(  134) = (   0.1666667   0.3333333  -0.5000000), wk =   0.0069444
        k(  135) = (   0.1666667   0.3333333  -0.4166667), wk =   0.0069444
        k(  136) = (   0.1666667   0.3333333  -0.3333333), wk =   0.0034722
        k(  137) = (   0.1666667   0.4166667  -0.0000000), wk =   0.0069444
        k(  138) = (   0.1666667   0.4166667   0.0833333), wk =   0.0069444
        k(  139) = (   0.1666667   0.4166667   0.1666667), wk =   0.0069444
        k(  140) = (   0.1666667   0.4166667   0.2500000), wk =   0.0069444
        k(  141) = (   0.1666667   0.4166667   0.3333333), wk =   0.0069444
        k(  142) = (   0.1666667   0.4166667   0.4166667), wk =   0.0069444
        k(  143) = (   0.1666667   0.4166667  -0.5000000), wk =   0.0069444
        k(  144) = (   0.1666667   0.4166667  -0.4166667), wk =   0.0069444
        k(  145) = (   0.1666667   0.4166667  -0.3333333), wk =   0.0069444
        k(  146) = (   0.1666667   0.4166667  -0.2500000), wk =   0.0069444
        k(  147) = (   0.1666667   0.4166667  -0.1666667), wk =   0.0069444
        k(  148) = (   0.1666667   0.4166667  -0.0833333), wk =   0.0069444
        k(  149) = (   0.1666667  -0.5000000  -0.0000000), wk =   0.0069444
        k(  150) = (   0.1666667  -0.5000000   0.0833333), wk =   0.0069444
        k(  151) = (   0.1666667  -0.5000000   0.1666667), wk =   0.0069444
        k(  152) = (   0.1666667  -0.5000000   0.2500000), wk =   0.0069444
        k(  153) = (   0.1666667  -0.5000000   0.3333333), wk =   0.0069444
        k(  154) = (   0.1666667  -0.5000000   0.4166667), wk =   0.0069444
        k(  155) = (   0.1666667  -0.5000000  -0.5000000), wk =   0.0069444
        k(  156) = (   0.1666667  -0.5000000  -0.4166667), wk =   0.0069444
        k(  157) = (   0.1666667  -0.5000000  -0.3333333), wk =   0.0069444
        k(  158) = (   0.1666667  -0.5000000  -0.2500000), wk =   0.0069444
        k(  159) = (   0.1666667  -0.5000000  -0.1666667), wk =   0.0069444
        k(  160) = (   0.1666667  -0.5000000  -0.0833333), wk =   0.0069444
        k(  161) = (   0.1666667  -0.4166667  -0.0000000), wk =   0.0069444
        k(  162) = (   0.1666667  -0.4166667   0.0833333), wk =   0.0034722
        k(  163) = (   0.1666667  -0.4166667   0.2500000), wk =   0.0069444
        k(  164) = (   0.1666667  -0.4166667   0.3333333), wk =   0.0069444
        k(  165) = (   0.1666667  -0.4166667   0.4166667), wk =   0.0069444
        k(  166) = (   0.1666667  -0.4166667  -0.5000000), wk =   0.0069444
        k(  167) = (   0.1666667  -0.4166667  -0.4166667), wk =   0.0034722
        k(  168) = (   0.2500000  -0.5000000   0.0000000), wk =   0.0069444
        k(  169) = (   0.2500000  -0.5000000   0.0833333), wk =   0.0069444
        k(  170) = (   0.2500000  -0.5000000   0.1666667), wk =   0.0069444
        k(  171) = (   0.2500000  -0.5000000   0.2500000), wk =   0.0034722
        k(  172) = (   0.2500000  -0.5000000  -0.4166667), wk =   0.0069444
        k(  173) = (   0.2500000  -0.5000000  -0.3333333), wk =   0.0069444
        k(  174) = (   0.2500000  -0.5000000  -0.2500000), wk =   0.0034722
        k(  175) = (   0.2500000  -0.4166667   0.0000000), wk =   0.0069444
        k(  176) = (   0.2500000  -0.4166667   0.0833333), wk =   0.0069444
        k(  177) = (   0.2500000  -0.4166667   0.1666667), wk =   0.0069444
        k(  178) = (   0.2500000  -0.4166667   0.2500000), wk =   0.0069444
        k(  179) = (   0.2500000  -0.4166667   0.3333333), wk =   0.0069444
        k(  180) = (   0.2500000  -0.4166667   0.4166667), wk =   0.0069444
        k(  181) = (   0.2500000  -0.4166667  -0.5000000), wk =   0.0069444
        k(  182) = (   0.2500000  -0.4166667  -0.4166667), wk =   0.0069444
        k(  183) = (   0.2500000  -0.4166667  -0.3333333), wk =   0.0069444
        k(  184) = (   0.2500000  -0.4166667  -0.2500000), wk =   0.0069444
        k(  185) = (   0.2500000  -0.4166667  -0.1666667), wk =   0.0069444
        k(  186) = (   0.2500000  -0.4166667  -0.0833333), wk =   0.0069444
        k(  187) = (   0.3333333  -0.3333333  -0.0000000), wk =   0.0034722
        k(  188) = (   0.3333333  -0.3333333   0.0833333), wk =   0.0069444
        k(  189) = (   0.3333333  -0.3333333   0.1666667), wk =   0.0034722

     Dense  grid:   128421 G-vectors     FFT dimensions: (  72,  72,  72)

     Smooth grid:    45239 G-vectors     FFT dimensions: (  50,  50,  50)

     Dynamical RAM for                 wfc:       0.16 MB

     Dynamical RAM for     wfc (w. buffer):      62.19 MB

     Dynamical RAM for           str. fact:       0.29 MB

     Dynamical RAM for           local pot:       0.00 MB

     Dynamical RAM for          nlocal pot:       0.31 MB

     Dynamical RAM for                qrad:       6.81 MB

     Dynamical RAM for          rho,v,vnew:       1.54 MB

     Dynamical RAM for               rhoin:       0.51 MB

     Dynamical RAM for            rho*nmix:       3.13 MB

     Dynamical RAM for           G-vectors:       0.38 MB

     Dynamical RAM for          h,s,v(r/c):       0.26 MB

     Dynamical RAM for          <psi|beta>:       0.04 MB

     Dynamical RAM for                 psi:       0.33 MB

     Dynamical RAM for                hpsi:       0.33 MB

     Dynamical RAM for                spsi:       0.33 MB

     Dynamical RAM for      wfcinit/wfcrot:       0.37 MB

     Dynamical RAM for           addusdens:      18.51 MB

     Estimated static dynamical RAM per process >      73.38 MB

     Estimated max dynamical RAM per process >      95.03 MB

     Estimated total dynamical RAM >       1.86 GB

     Check: negative core charge=   -0.000010
     Generating pointlists ...
     new r_m :   0.2526 (alat units)  1.9712 (a.u.) for type    1
     new r_m :   0.2526 (alat units)  1.9712 (a.u.) for type    2
     new r_m :   0.2526 (alat units)  1.9712 (a.u.) for type    3

     Initial potential from superposition of free atoms

     starting charge      63.9976, renormalised to      64.0000
     Starting wfcs are   39 randomized atomic wfcs
     Checking if some PAW data can be deallocated... 
       PAW data deallocated on   10 nodes for type:  1
       PAW data deallocated on   15 nodes for type:  2
       PAW data deallocated on   15 nodes for type:  3

     total cpu time spent up to now is        6.8 secs

     per-process dynamical memory:   138.8 Mb

     Self-consistent Calculation

     iteration #  1     ecut=   100.00 Ry     beta= 0.20
     Davidson diagonalization with overlap

---- Real-time Memory Report at c_bands before calling an iterative solver
           238 MiB given to the printing process from OS
           135 MiB allocation reported by mallinfo(arena+hblkhd)
         59246 MiB available memory on the node where the printing process lives
------------------
     ethr =  1.00E-02,  avg # of iterations =  4.6

     total cpu time spent up to now is       25.3 secs

     total energy              =   -1523.37286321 Ry
     estimated scf accuracy    <       2.81808406 Ry

     total magnetization       =     8.03 Bohr mag/cell
     absolute magnetization    =     8.54 Bohr mag/cell

     iteration #  2     ecut=   100.00 Ry     beta= 0.20
     Davidson diagonalization with overlap

---- Real-time Memory Report at c_bands before calling an iterative solver
           261 MiB given to the printing process from OS
           155 MiB allocation reported by mallinfo(arena+hblkhd)
         58876 MiB available memory on the node where the printing process lives
------------------
     ethr =  4.40E-03,  avg # of iterations =  1.8

     negative rho (up, down):  0.000E+00 1.035E-04

     total cpu time spent up to now is       39.4 secs

     total energy              =   -1524.52237028 Ry
     estimated scf accuracy    <       1.94504696 Ry

     total magnetization       =     7.50 Bohr mag/cell
     absolute magnetization    =     8.29 Bohr mag/cell

     iteration #  3     ecut=   100.00 Ry     beta= 0.20
     Davidson diagonalization with overlap

---- Real-time Memory Report at c_bands before calling an iterative solver
           262 MiB given to the printing process from OS
           155 MiB allocation reported by mallinfo(arena+hblkhd)
         58874 MiB available memory on the node where the printing process lives
------------------
     ethr =  3.04E-03,  avg # of iterations =  1.3

     negative rho (up, down):  0.000E+00 2.331E-04

     total cpu time spent up to now is       52.7 secs

     total energy              =   -1524.71928283 Ry
     estimated scf accuracy    <       0.34572785 Ry

     total magnetization       =     6.09 Bohr mag/cell
     absolute magnetization    =     7.02 Bohr mag/cell

     iteration #  4     ecut=   100.00 Ry     beta= 0.20
     Davidson diagonalization with overlap

---- Real-time Memory Report at c_bands before calling an iterative solver
           263 MiB given to the printing process from OS
           155 MiB allocation reported by mallinfo(arena+hblkhd)
         58872 MiB available memory on the node where the printing process lives
------------------
     ethr =  5.40E-04,  avg # of iterations =  2.3

     negative rho (up, down):  0.000E+00 1.488E-04

     total cpu time spent up to now is       67.9 secs

     total energy              =   -1524.76170700 Ry
     estimated scf accuracy    <       0.10167575 Ry

     total magnetization       =     5.34 Bohr mag/cell
     absolute magnetization    =     6.12 Bohr mag/cell

     iteration #  5     ecut=   100.00 Ry     beta= 0.20
     Davidson diagonalization with overlap

---- Real-time Memory Report at c_bands before calling an iterative solver
           263 MiB given to the printing process from OS
           155 MiB allocation reported by mallinfo(arena+hblkhd)
         58869 MiB available memory on the node where the printing process lives
------------------
     ethr =  1.59E-04,  avg # of iterations =  4.2

     negative rho (up, down):  0.000E+00 1.097E-04

     total cpu time spent up to now is       84.8 secs

     total energy              =   -1524.75629252 Ry
     estimated scf accuracy    <       0.05061786 Ry

     total magnetization       =     5.25 Bohr mag/cell
     absolute magnetization    =     5.87 Bohr mag/cell

     iteration #  6     ecut=   100.00 Ry     beta= 0.20
     Davidson diagonalization with overlap

---- Real-time Memory Report at c_bands before calling an iterative solver
           264 MiB given to the printing process from OS
           155 MiB allocation reported by mallinfo(arena+hblkhd)
         58866 MiB available memory on the node where the printing process lives
------------------
     ethr =  7.91E-05,  avg # of iterations =  4.4

     negative rho (up, down):  0.000E+00 9.738E-05

     total cpu time spent up to now is      103.4 secs

     total energy              =   -1524.76942987 Ry
     estimated scf accuracy    <       0.03805505 Ry

     total magnetization       =     5.01 Bohr mag/cell
     absolute magnetization    =     5.40 Bohr mag/cell

     iteration #  7     ecut=   100.00 Ry     beta= 0.20
     Davidson diagonalization with overlap

---- Real-time Memory Report at c_bands before calling an iterative solver
           264 MiB given to the printing process from OS
           156 MiB allocation reported by mallinfo(arena+hblkhd)
         58863 MiB available memory on the node where the printing process lives
------------------
     ethr =  5.95E-05,  avg # of iterations =  1.9

     negative rho (up, down):  0.000E+00 9.371E-05

     total cpu time spent up to now is      117.5 secs

     total energy              =   -1524.77576658 Ry
     estimated scf accuracy    <       0.03911091 Ry

     total magnetization       =     5.21 Bohr mag/cell
     absolute magnetization    =     5.59 Bohr mag/cell

     iteration #  8     ecut=   100.00 Ry     beta= 0.20
     Davidson diagonalization with overlap

---- Real-time Memory Report at c_bands before calling an iterative solver
           271 MiB given to the printing process from OS
           161 MiB allocation reported by mallinfo(arena+hblkhd)
         58853 MiB available memory on the node where the printing process lives
------------------
     ethr =  5.95E-05,  avg # of iterations =  1.7

     negative rho (up, down):  0.000E+00 9.287E-05

     total cpu time spent up to now is      131.8 secs

     total energy              =   -1524.77388329 Ry
     estimated scf accuracy    <       0.02160866 Ry

     total magnetization       =     5.20 Bohr mag/cell
     absolute magnetization    =     5.56 Bohr mag/cell

     iteration #  9     ecut=   100.00 Ry     beta= 0.20
     Davidson diagonalization with overlap

---- Real-time Memory Report at c_bands before calling an iterative solver
           271 MiB given to the printing process from OS
           161 MiB allocation reported by mallinfo(arena+hblkhd)
         58843 MiB available memory on the node where the printing process lives
------------------
     ethr =  3.38E-05,  avg # of iterations =  1.7

     negative rho (up, down):  0.000E+00 9.336E-05

     total cpu time spent up to now is      145.5 secs

     total energy              =   -1524.77511786 Ry
     estimated scf accuracy    <       0.00070811 Ry

     total magnetization       =     5.24 Bohr mag/cell
     absolute magnetization    =     5.57 Bohr mag/cell

     iteration # 10     ecut=   100.00 Ry     beta= 0.20
     Davidson diagonalization with overlap

---- Real-time Memory Report at c_bands before calling an iterative solver
           272 MiB given to the printing process from OS
           161 MiB allocation reported by mallinfo(arena+hblkhd)
         58844 MiB available memory on the node where the printing process lives
------------------
     c_bands:  1 eigenvalues not converged
     c_bands:  1 eigenvalues not converged
     c_bands:  1 eigenvalues not converged
     c_bands:  1 eigenvalues not converged
     c_bands:  1 eigenvalues not converged
     c_bands:  1 eigenvalues not converged
     c_bands:  1 eigenvalues not converged
     c_bands:  1 eigenvalues not converged
     c_bands:  1 eigenvalues not converged
     c_bands:  1 eigenvalues not converged
     c_bands:  1 eigenvalues not converged
     c_bands:  1 eigenvalues not converged
     c_bands:  1 eigenvalues not converged
     c_bands:  1 eigenvalues not converged
     c_bands:  1 eigenvalues not converged
     c_bands:  1 eigenvalues not converged
     c_bands:  1 eigenvalues not converged
     c_bands:  1 eigenvalues not converged
     c_bands:  1 eigenvalues not converged
     c_bands:  1 eigenvalues not converged
     c_bands:  1 eigenvalues not converged
     c_bands:  1 eigenvalues not converged
     c_bands:  1 eigenvalues not converged
     c_bands:  1 eigenvalues not converged
     c_bands:  1 eigenvalues not converged
     c_bands:  1 eigenvalues not converged
     c_bands:  1 eigenvalues not converged
     ethr =  1.11E-06,  avg # of iterations =  8.6

     negative rho (up, down):  0.000E+00 9.276E-05

     total cpu time spent up to now is      172.3 secs

     total energy              =   -1524.77564277 Ry
     estimated scf accuracy    <       0.00026528 Ry

     total magnetization       =     5.23 Bohr mag/cell
     absolute magnetization    =     5.54 Bohr mag/cell

     iteration # 11     ecut=   100.00 Ry     beta= 0.20
     Davidson diagonalization with overlap

---- Real-time Memory Report at c_bands before calling an iterative solver
           272 MiB given to the printing process from OS
           161 MiB allocation reported by mallinfo(arena+hblkhd)
         58834 MiB available memory on the node where the printing process lives
------------------
     c_bands:  1 eigenvalues not converged
     c_bands:  1 eigenvalues not converged
     c_bands:  1 eigenvalues not converged
     ethr =  4.14E-07,  avg # of iterations =  3.8

     negative rho (up, down):  0.000E+00 9.829E-05

     total cpu time spent up to now is      190.2 secs

     total energy              =   -1524.77569206 Ry
     estimated scf accuracy    <       0.00029896 Ry

     total magnetization       =     5.23 Bohr mag/cell
     absolute magnetization    =     5.53 Bohr mag/cell

     iteration # 12     ecut=   100.00 Ry     beta= 0.20
     Davidson diagonalization with overlap

---- Real-time Memory Report at c_bands before calling an iterative solver
           272 MiB given to the printing process from OS
           161 MiB allocation reported by mallinfo(arena+hblkhd)
         58833 MiB available memory on the node where the printing process lives
------------------
     ethr =  4.14E-07,  avg # of iterations =  1.5

     negative rho (up, down):  0.000E+00 9.831E-05

     total cpu time spent up to now is      203.7 secs

     total energy              =   -1524.77571167 Ry
     estimated scf accuracy    <       0.00005123 Ry

     total magnetization       =     5.26 Bohr mag/cell
     absolute magnetization    =     5.56 Bohr mag/cell

     iteration # 13     ecut=   100.00 Ry     beta= 0.20
     Davidson diagonalization with overlap

---- Real-time Memory Report at c_bands before calling an iterative solver
           273 MiB given to the printing process from OS
           161 MiB allocation reported by mallinfo(arena+hblkhd)
         58832 MiB available memory on the node where the printing process lives
------------------
     ethr =  8.00E-08,  avg # of iterations =  4.2

     negative rho (up, down):  0.000E+00 9.835E-05

     total cpu time spent up to now is      224.1 secs

     total energy              =   -1524.77573303 Ry
     estimated scf accuracy    <       0.00001964 Ry

     total magnetization       =     5.25 Bohr mag/cell
     absolute magnetization    =     5.55 Bohr mag/cell

     iteration # 14     ecut=   100.00 Ry     beta= 0.20
     Davidson diagonalization with overlap

---- Real-time Memory Report at c_bands before calling an iterative solver
           273 MiB given to the printing process from OS
           161 MiB allocation reported by mallinfo(arena+hblkhd)
         58832 MiB available memory on the node where the printing process lives
------------------
     ethr =  3.07E-08,  avg # of iterations =  2.1

     negative rho (up, down):  0.000E+00 9.810E-05

     total cpu time spent up to now is      238.5 secs

     total energy              =   -1524.77573282 Ry
     estimated scf accuracy    <       0.00000723 Ry

     total magnetization       =     5.25 Bohr mag/cell
     absolute magnetization    =     5.55 Bohr mag/cell

     iteration # 15     ecut=   100.00 Ry     beta= 0.20
     Davidson diagonalization with overlap

---- Real-time Memory Report at c_bands before calling an iterative solver
           274 MiB given to the printing process from OS
           161 MiB allocation reported by mallinfo(arena+hblkhd)
         58832 MiB available memory on the node where the printing process lives
------------------
     ethr =  1.13E-08,  avg # of iterations =  4.1

     negative rho (up, down):  0.000E+00 9.819E-05

     total cpu time spent up to now is      257.5 secs

     total energy              =   -1524.77573481 Ry
     estimated scf accuracy    <       0.00000062 Ry

     total magnetization       =     5.25 Bohr mag/cell
     absolute magnetization    =     5.55 Bohr mag/cell

     iteration # 16     ecut=   100.00 Ry     beta= 0.20
     Davidson diagonalization with overlap

---- Real-time Memory Report at c_bands before calling an iterative solver
           274 MiB given to the printing process from OS
           161 MiB allocation reported by mallinfo(arena+hblkhd)
         58832 MiB available memory on the node where the printing process lives
------------------
     c_bands:  1 eigenvalues not converged
     ethr =  9.74E-10,  avg # of iterations =  6.4

     negative rho (up, down):  0.000E+00 9.813E-05

     total cpu time spent up to now is      281.8 secs

     total energy              =   -1524.77573518 Ry
     estimated scf accuracy    <       0.00000032 Ry

     total magnetization       =     5.25 Bohr mag/cell
     absolute magnetization    =     5.55 Bohr mag/cell

     iteration # 17     ecut=   100.00 Ry     beta= 0.20
     Davidson diagonalization with overlap

---- Real-time Memory Report at c_bands before calling an iterative solver
           274 MiB given to the printing process from OS
           161 MiB allocation reported by mallinfo(arena+hblkhd)
         58832 MiB available memory on the node where the printing process lives
------------------
     ethr =  5.00E-10,  avg # of iterations =  2.3

     negative rho (up, down):  0.000E+00 9.807E-05

     total cpu time spent up to now is      296.1 secs

     total energy              =   -1524.77573518 Ry
     estimated scf accuracy    <       0.00000009 Ry

     total magnetization       =     5.25 Bohr mag/cell
     absolute magnetization    =     5.55 Bohr mag/cell

     iteration # 18     ecut=   100.00 Ry     beta= 0.20
     Davidson diagonalization with overlap

---- Real-time Memory Report at c_bands before calling an iterative solver
           275 MiB given to the printing process from OS
           161 MiB allocation reported by mallinfo(arena+hblkhd)
         58832 MiB available memory on the node where the printing process lives
------------------
     ethr =  1.39E-10,  avg # of iterations =  4.4

     negative rho (up, down):  0.000E+00 9.806E-05
 
     Magnetic moment per site  (integrated on atomic sphere of radius R)
     atom   1 (R=0.253)  charge= 14.4785  magn=  2.7961
     atom   2 (R=0.253)  charge= 11.1691  magn= -0.0100
     atom   3 (R=0.253)  charge= 15.7991  magn=  1.2711
     atom   4 (R=0.253)  charge= 15.7991  magn=  1.2711

     total cpu time spent up to now is      314.8 secs

     End of self-consistent calculation

 ------ SPIN UP ------------


          k = 0.0000 0.0000 0.0000 (  5769 PWs)   bands (ev):

   -76.5039 -76.4978 -69.8502 -39.8153 -39.8153 -39.8153 -39.7909 -39.7909
   -39.7909 -35.8981 -35.8980 -35.8980  -2.2890  -2.2890  -2.2890  -2.2294
    -2.2294   7.3722  14.7624  14.7624  14.9440  14.9440  14.9440  15.6720
    15.6720  15.6720  17.2439  17.2439  17.8006  17.8006  17.8615  17.8615
    17.8615  22.9809  23.2681  23.2681  23.2682  24.2705

     occupation numbers 
     1.0000   1.0000   1.0000   1.0000   1.0000   1.0000   1.0000   1.0000
     1.0000   1.0000   1.0000   1.0000   1.0000   1.0000   1.0000   1.0000
     1.0000   1.0000   1.0000   1.0000   1.0000   1.0000   1.0000   1.0000
     1.0000   1.0000   1.0000   1.0000   1.0000   1.0000   1.0000   1.0000
     1.0000   0.0000   0.0000   0.0000   0.0000   0.0000

          k = 0.0000 0.0000 0.1021 (  5700 PWs)   bands (ev):

   -76.5038 -76.4979 -69.8502 -39.8150 -39.8149 -39.8149 -39.7913 -39.7913
   -39.7912 -35.8981 -35.8980 -35.8980  -2.2892  -2.2881  -2.2881  -2.2287
    -2.2287   7.4662  14.6388  14.6388  14.8399  15.1159  15.1159  15.6541
    15.6638  15.6638  17.2357  17.2357  17.7171  17.7171  17.7526  17.8972
    17.8972  22.0668  23.0424  23.0424  23.3454  24.6111

     occupation numbers 
     1.0000   1.0000   1.0000   1.0000   1.0000   1.0000   1.0000   1.0000
     1.0000   1.0000   1.0000   1.0000   1.0000   1.0000   1.0000   1.0000
     1.0000   1.0000   1.0000   1.0000   1.0000   1.0000   1.0000   1.0000
     1.0000   1.0000   1.0000   1.0000   1.0000   1.0000   1.0000   1.0000
     1.0000   0.0000   0.0000   0.0000   0.0000   0.0000

          k = 0.0000 0.0000 0.2041 (  5708 PWs)   bands (ev):

   -76.5035 -76.4982 -69.8502 -39.8140 -39.8137 -39.8137 -39.7926 -39.7926
   -39.7923 -35.8983 -35.8979 -35.8979  -2.2897  -2.2857  -2.2857  -2.2268
    -2.2268   7.7446  14.5057  14.5057  14.5142  15.3729  15.3729  15.5878
    15.6560  15.6560  17.2117  17.2117  17.5033  17.5762  17.5762  17.9038
    17.9038  20.8659  22.6926  22.6926  23.1187  24.4318

     occupation numbers 
     1.0000   1.0000   1.0000   1.0000   1.0000   1.0000   1.0000   1.0000
     1.0000   1.0000   1.0000   1.0000   1.0000   1.0000   1.0000   1.0000
     1.0000   1.0000   1.0000   1.0000   1.0000   1.0000   1.0000   1.0000
     1.0000   1.0000   1.0000   1.0000   1.0000   1.0000   1.0000   1.0000
     1.0000   0.0000   0.0000   0.0000   0.0000   0.0000

          k = 0.0000 0.0000 0.3062 (  5687 PWs)   bands (ev):

   -76.5030 -76.4986 -69.8503 -39.8123 -39.8118 -39.8118 -39.7946 -39.7946
   -39.7942 -35.8985 -35.8979 -35.8979  -2.2905  -2.2828  -2.2828  -2.2238
    -2.2238   8.1942  13.9178  14.4179  14.4179  15.5101  15.5171  15.5171
    15.7761  15.7761  17.1677  17.1677  17.2770  17.4305  17.4305  17.8613
    17.8613  19.7890  22.4306  22.4306  22.9559  24.0443

     occupation numbers 
     1.0000   1.0000   1.0000   1.0000   1.0000   1.0000   1.0000   1.0000
     1.0000   1.0000   1.0000   1.0000   1.0000   1.0000   1.0000   1.0000
     1.0000   1.0000   1.0000   1.0000   1.0000   1.0000   1.0000   1.0000
     1.0000   1.0000   1.0000   1.0000   1.0000   1.0000   1.0000   1.0000
     1.0000   0.0134   0.0000   0.0000   0.0000   0.0000

          k = 0.0000 0.0000 0.4082 (  5678 PWs)   bands (ev):

   -76.5023 -76.4993 -69.8503 -39.8098 -39.8094 -39.8094 -39.7971 -39.7971
   -39.7967 -35.8988 -35.8978 -35.8978  -2.2914  -2.2801  -2.2801  -2.2206
    -2.2206   8.7828  13.0962  14.3689  14.3689  15.4887  15.5155  15.5155
    16.0306  16.0306  17.0933  17.0933  17.1611  17.3313  17.3313  17.7785
    17.7785  18.9111  22.2941  22.2941  22.8704  23.5807

     occupation numbers 
     1.0000   1.0000   1.0000   1.0000   1.0000   1.0000   1.0000   1.0000
     1.0000   1.0000   1.0000   1.0000   1.0000   1.0000   1.0000   1.0000
     1.0000   1.0000   1.0000   1.0000   1.0000   1.0000   1.0000   1.0000
     1.0000   1.0000   1.0000   1.0000   1.0000   1.0000   1.0000   1.0000
     1.0000   0.9905   0.0000   0.0000   0.0000   0.0000

          k = 0.0000 0.0000 0.5103 (  5660 PWs)   bands (ev):

   -76.5016 -76.5000 -69.8503 -39.8068 -39.8065 -39.8065 -39.8001 -39.8001
   -39.7998 -35.8990 -35.8977 -35.8977  -2.2921  -2.2783  -2.2783  -2.2180
    -2.2180   9.4197  12.2567  14.3462  14.3462  15.5055  15.5055  15.5182
    16.2332  16.2332  17.0237  17.0237  17.1495  17.2879  17.2879  17.6849
    17.6849  18.2868  22.2686  22.2686  22.8308  23.2093

     occupation numbers 
     1.0000   1.0000   1.0000   1.0000   1.0000   1.0000   1.0000   1.0000
     1.0000   1.0000   1.0000   1.0000   1.0000   1.0000   1.0000   1.0000
     1.0000   1.0000   1.0000   1.0000   1.0000   1.0000   1.0000   1.0000
     1.0000   1.0000   1.0000   1.0000   1.0000   1.0000   1.0000   1.0000
     1.0000   1.0000   0.0000   0.0000   0.0000   0.0000

          k = 0.0000 0.0000-0.6124 (  5624 PWs)   bands (ev):

   -76.5008 -76.5008 -69.8503 -39.8041 -39.8041 -39.8040 -39.8027 -39.8026
   -39.8026 -35.8990 -35.8977 -35.8977  -2.2923  -2.2777  -2.2777  -2.2170
    -2.2170   9.7746  11.8239  14.3398  14.3398  15.5028  15.5028  15.5401
    16.3076  16.3076  17.0030  17.0030  17.1750  17.2751  17.2751  17.6400
    17.6400  18.0379  22.2834  22.2834  22.8192  23.0572

     occupation numbers 
     1.0000   1.0000   1.0000   1.0000   1.0000   1.0000   1.0000   1.0000
     1.0000   1.0000   1.0000   1.0000   1.0000   1.0000   1.0000   1.0000
     1.0000   1.0000   1.0000   1.0000   1.0000   1.0000   1.0000   1.0000
     1.0000   1.0000   1.0000   1.0000   1.0000   1.0000   1.0000   1.0000
     1.0000   1.0000   0.0000   0.0000   0.0000   0.0000

          k = 0.0000 0.0962-0.0340 (  5700 PWs)   bands (ev):

   -76.5038 -76.4979 -69.8502 -39.8150 -39.8149 -39.8149 -39.7913 -39.7913
   -39.7912 -35.8981 -35.8980 -35.8980  -2.2892  -2.2881  -2.2881  -2.2287
    -2.2287   7.4662  14.6388  14.6389  14.8399  15.1159  15.1159  15.6541
    15.6638  15.6638  17.2357  17.2357  17.7171  17.7171  17.7526  17.8972
    17.8973  22.0668  23.0424  23.0424  23.3454  24.6113

     occupation numbers 
     1.0000   1.0000   1.0000   1.0000   1.0000   1.0000   1.0000   1.0000
     1.0000   1.0000   1.0000   1.0000   1.0000   1.0000   1.0000   1.0000
     1.0000   1.0000   1.0000   1.0000   1.0000   1.0000   1.0000   1.0000
     1.0000   1.0000   1.0000   1.0000   1.0000   1.0000   1.0000   1.0000
     1.0000   0.0000   0.0000   0.0000   0.0000   0.0000

          k = 0.0000 0.0962 0.0680 (  5709 PWs)   bands (ev):

   -76.5038 -76.4979 -69.8502 -39.8156 -39.8156 -39.8133 -39.7929 -39.7907
   -39.7907 -35.8982 -35.8980 -35.8980  -2.2906  -2.2871  -2.2871  -2.2292
    -2.2278   7.4974  14.4324  14.8031  14.9879  14.9879  15.1453  15.6089
    15.6816  15.6816  17.2026  17.2606  17.6531  17.7649  17.7649  17.7984
    17.9362  22.2429  22.5300  22.5300  23.9540  24.0263

     occupation numbers 
     1.0000   1.0000   1.0000   1.0000   1.0000   1.0000   1.0000   1.0000
     1.0000   1.0000   1.0000   1.0000   1.0000   1.0000   1.0000   1.0000
     1.0000   1.0000   1.0000   1.0000   1.0000   1.0000   1.0000   1.0000
     1.0000   1.0000   1.0000   1.0000   1.0000   1.0000   1.0000   1.0000
     1.0000   0.0000   0.0000   0.0000   0.0000   0.0000

          k = 0.0000 0.0962 0.1701 (  5720 PWs)   bands (ev):

   -76.5035 -76.4981 -69.8502 -39.8155 -39.8154 -39.8110 -39.7952 -39.7909
   -39.7909 -35.8983 -35.8979 -35.8979  -2.2917  -2.2850  -2.2846  -2.2286
    -2.2257   7.7139  14.2026  14.7178  14.8606  15.1943  15.3664  15.5316
    15.6726  15.6903  17.1547  17.2648  17.5391  17.5778  17.6191  17.8140
    17.9631  21.2407  22.0217  22.2475  23.8398  24.2144

     occupation numbers 
     1.0000   1.0000   1.0000   1.0000   1.0000   1.0000   1.0000   1.0000
     1.0000   1.0000   1.0000   1.0000   1.0000   1.0000   1.0000   1.0000
     1.0000   1.0000   1.0000   1.0000   1.0000   1.0000   1.0000   1.0000
     1.0000   1.0000   1.0000   1.0000   1.0000   1.0000   1.0000   1.0000
     1.0000   0.0000   0.0000   0.0000   0.0000   0.0000

          k = 0.0000 0.0962 0.2722 (  5699 PWs)   bands (ev):

   -76.5031 -76.4985 -69.8503 -39.8146 -39.8145 -39.8082 -39.7980 -39.7920
   -39.7919 -35.8985 -35.8979 -35.8978  -2.2921  -2.2828  -2.2816  -2.2267
    -2.2227   8.1057  13.9107  14.5686  14.6084  15.4318  15.4496  15.5737
    15.6995  15.7499  17.0946  17.2448  17.3239  17.4195  17.4635  17.7897
    17.9550  20.1201  21.6381  21.9509  23.4867  24.1958

     occupation numbers 
     1.0000   1.0000   1.0000   1.0000   1.0000   1.0000   1.0000   1.0000
     1.0000   1.0000   1.0000   1.0000   1.0000   1.0000   1.0000   1.0000
     1.0000   1.0000   1.0000   1.0000   1.0000   1.0000   1.0000   1.0000
     1.0000   1.0000   1.0000   1.0000   1.0000   1.0000   1.0000   1.0000
     1.0000   0.0000   0.0000   0.0000   0.0000   0.0000

          k = 0.0000 0.0962 0.3742 (  5680 PWs)   bands (ev):

   -76.5025 -76.4991 -69.8503 -39.8129 -39.8128 -39.8051 -39.8013 -39.7938
   -39.7937 -35.8987 -35.8978 -35.8977  -2.2921  -2.2808  -2.2788  -2.2239
    -2.2195   8.6480  13.3442  14.3347  14.5234  15.4229  15.5103  15.5534
    15.9504  15.9656  17.0251  17.1083  17.2176  17.3362  17.3437  17.7297
    17.8935  19.1703  21.4089  21.6745  23.1520  24.0272

     occupation numbers 
     1.0000   1.0000   1.0000   1.0000   1.0000   1.0000   1.0000   1.0000
     1.0000   1.0000   1.0000   1.0000   1.0000   1.0000   1.0000   1.0000
     1.0000   1.0000   1.0000   1.0000   1.0000   1.0000   1.0000   1.0000
     1.0000   1.0000   1.0000   1.0000   1.0000   1.0000   1.0000   1.0000
     1.0000   0.8413   0.0000   0.0000   0.0000   0.0000

          k = 0.0000 0.0962 0.4763 (  5675 PWs)   bands (ev):

   -76.5018 -76.4998 -69.8503 -39.8104 -39.8104 -39.8048 -39.8017 -39.7963
   -39.7963 -35.8989 -35.8978 -35.8977  -2.2919  -2.2794  -2.2770  -2.2210
    -2.2172   9.2767  12.5620  14.2553  14.4550  15.4506  15.5113  15.5330
    16.1855  16.1989  16.9703  16.9789  17.1657  17.2780  17.3160  17.6682
    17.7866  18.4557  21.3432  21.4201  22.9408  23.9633

     occupation numbers 
     1.0000   1.0000   1.0000   1.0000   1.0000   1.0000   1.0000   1.0000
     1.0000   1.0000   1.0000   1.0000   1.0000   1.0000   1.0000   1.0000
     1.0000   1.0000   1.0000   1.0000   1.0000   1.0000   1.0000   1.0000
     1.0000   1.0000   1.0000   1.0000   1.0000   1.0000   1.0000   1.0000
     1.0000   1.0000   0.0000   0.0000   0.0000   0.0000

          k = 0.0000 0.0962-0.6464 (  5660 PWs)   bands (ev):

   -76.5010 -76.5005 -69.8503 -39.8081 -39.8075 -39.8073 -39.7994 -39.7992
   -39.7985 -35.8990 -35.8978 -35.8976  -2.2916  -2.2786  -2.2765  -2.2188
    -2.2164   9.7750  11.9601  14.2573  14.3961  15.4774  15.4998  15.5388
    16.3193  16.3237  16.9283  16.9488  17.1360  17.2587  17.3221  17.6660
    17.6774  18.0681  21.2094  21.4404  22.8597  23.9931

     occupation numbers 
     1.0000   1.0000   1.0000   1.0000   1.0000   1.0000   1.0000   1.0000
     1.0000   1.0000   1.0000   1.0000   1.0000   1.0000   1.0000   1.0000
     1.0000   1.0000   1.0000   1.0000   1.0000   1.0000   1.0000   1.0000
     1.0000   1.0000   1.0000   1.0000   1.0000   1.0000   1.0000   1.0000
     1.0000   1.0000   0.0000   0.0000   0.0000   0.0000

          k = 0.0000 0.0962-0.5443 (  5667 PWs)   bands (ev):

   -76.5013 -76.5003 -69.8503 -39.8111 -39.8044 -39.8041 -39.8026 -39.8022
   -39.7956 -35.8989 -35.8977 -35.8977  -2.2913  -2.2785  -2.2772  -2.2182
    -2.2176   9.6518  12.1074  14.3061  14.3470  15.4703  15.4901  15.5480
    16.2927  16.3028  16.9261  16.9673  17.1175  17.2672  17.3088  17.6404
    17.7515  18.1538  21.0830  21.6873  22.8749  23.8337

     occupation numbers 
     1.0000   1.0000   1.0000   1.0000   1.0000   1.0000   1.0000   1.0000
     1.0000   1.0000   1.0000   1.0000   1.0000   1.0000   1.0000   1.0000
     1.0000   1.0000   1.0000   1.0000   1.0000   1.0000   1.0000   1.0000
     1.0000   1.0000   1.0000   1.0000   1.0000   1.0000   1.0000   1.0000
     1.0000   1.0000   0.0000   0.0000   0.0000   0.0000

          k = 0.0000 0.0962-0.4423 (  5665 PWs)   bands (ev):

   -76.5020 -76.4995 -69.8503 -39.8135 -39.8062 -39.8057 -39.8009 -39.8004
   -39.7931 -35.8988 -35.8978 -35.8977  -2.2911  -2.2791  -2.2791  -2.2203
    -2.2193   9.0651  12.8344  14.3154  14.4012  15.4385  15.4962  15.5452
    16.1149  16.1400  16.9540  17.0662  17.1320  17.2830  17.3270  17.6703
    17.8687  18.6732  21.0694  22.0477  22.9603  23.8304

     occupation numbers 
     1.0000   1.0000   1.0000   1.0000   1.0000   1.0000   1.0000   1.0000
     1.0000   1.0000   1.0000   1.0000   1.0000   1.0000   1.0000   1.0000
     1.0000   1.0000   1.0000   1.0000   1.0000   1.0000   1.0000   1.0000
     1.0000   1.0000   1.0000   1.0000   1.0000   1.0000   1.0000   1.0000
     1.0000   0.9998   0.0000   0.0000   0.0000   0.0000

          k = 0.0000 0.0962-0.3402 (  5686 PWs)   bands (ev):

   -76.5027 -76.4989 -69.8503 -39.8152 -39.8092 -39.8087 -39.7978 -39.7973
   -39.7914 -35.8986 -35.8978 -35.8978  -2.2908  -2.2818  -2.2806  -2.2236
    -2.2217   8.4531  13.6070  14.3156  14.5686  15.4125  15.5218  15.5248
    15.8680  15.8955  17.0449  17.1967  17.2121  17.3251  17.3909  17.7334
    17.9573  19.4784  21.1795  22.4578  23.1130  24.0509

     occupation numbers 
     1.0000   1.0000   1.0000   1.0000   1.0000   1.0000   1.0000   1.0000
     1.0000   1.0000   1.0000   1.0000   1.0000   1.0000   1.0000   1.0000
     1.0000   1.0000   1.0000   1.0000   1.0000   1.0000   1.0000   1.0000
     1.0000   1.0000   1.0000   1.0000   1.0000   1.0000   1.0000   1.0000
     1.0000   0.2738   0.0000   0.0000   0.0000   0.0000

          k = 0.0000 0.0962-0.2381 (  5701 PWs)   bands (ev):

   -76.5032 -76.4984 -69.8503 -39.8159 -39.8117 -39.8113 -39.7950 -39.7946
   -39.7905 -35.8984 -35.8979 -35.8979  -2.2905  -2.2848  -2.2829  -2.2265
    -2.2245   7.9568  14.1518  14.3634  14.8141  15.2946  15.5177  15.5548
    15.6392  15.7250  17.1298  17.2472  17.4064  17.4549  17.5010  17.7852
    17.9933  20.5010  21.4169  22.8537  23.3392  24.6254

     occupation numbers 
     1.0000   1.0000   1.0000   1.0000   1.0000   1.0000   1.0000   1.0000
     1.0000   1.0000   1.0000   1.0000   1.0000   1.0000   1.0000   1.0000
     1.0000   1.0000   1.0000   1.0000   1.0000   1.0000   1.0000   1.0000
     1.0000   1.0000   1.0000   1.0000   1.0000   1.0000   1.0000   1.0000
     1.0000   0.0000   0.0000   0.0000   0.0000   0.0000

          k = 0.0000 0.0962-0.1361 (  5705 PWs)   bands (ev):

   -76.5036 -76.4980 -69.8502 -39.8158 -39.8136 -39.8134 -39.7928 -39.7926
   -39.7905 -35.8982 -35.8980 -35.8979  -2.2899  -2.2872  -2.2857  -2.2283
    -2.2270   7.6216  14.4708  14.4807  15.0184  15.0202  15.3474  15.6000
    15.6292  15.6925  17.1911  17.2511  17.6023  17.6169  17.6698  17.8146
    17.9722  21.5636  21.9129  23.1543  23.5372  24.6447

     occupation numbers 
     1.0000   1.0000   1.0000   1.0000   1.0000   1.0000   1.0000   1.0000
     1.0000   1.0000   1.0000   1.0000   1.0000   1.0000   1.0000   1.0000
     1.0000   1.0000   1.0000   1.0000   1.0000   1.0000   1.0000   1.0000
     1.0000   1.0000   1.0000   1.0000   1.0000   1.0000   1.0000   1.0000
     1.0000   0.0000   0.0000   0.0000   0.0000   0.0000

          k = 0.0000 0.1925-0.0680 (  5708 PWs)   bands (ev):

   -76.5035 -76.4982 -69.8502 -39.8140 -39.8137 -39.8137 -39.7926 -39.7926
   -39.7923 -35.8983 -35.8980 -35.8979  -2.2897  -2.2857  -2.2857  -2.2268
    -2.2268   7.7446  14.5057  14.5057  14.5142  15.3729  15.3729  15.5878
    15.6560  15.6560  17.2117  17.2117  17.5033  17.5762  17.5762  17.9038
    17.9038  20.8659  22.6926  22.6926  23.1187  24.4318

     occupation numbers 
     1.0000   1.0000   1.0000   1.0000   1.0000   1.0000   1.0000   1.0000
     1.0000   1.0000   1.0000   1.0000   1.0000   1.0000   1.0000   1.0000
     1.0000   1.0000   1.0000   1.0000   1.0000   1.0000   1.0000   1.0000
     1.0000   1.0000   1.0000   1.0000   1.0000   1.0000   1.0000   1.0000
     1.0000   0.0000   0.0000   0.0000   0.0000   0.0000

          k = 0.0000 0.1925 0.0340 (  5720 PWs)   bands (ev):

   -76.5035 -76.4981 -69.8502 -39.8155 -39.8154 -39.8110 -39.7952 -39.7909
   -39.7909 -35.8983 -35.8980 -35.8979  -2.2917  -2.2850  -2.2846  -2.2286
    -2.2257   7.7139  14.2026  14.7178  14.8606  15.1943  15.3664  15.5316
    15.6726  15.6903  17.1547  17.2648  17.5391  17.5778  17.6191  17.8140
    17.9631  21.2407  22.0217  22.2475  23.8398  24.2147

     occupation numbers 
     1.0000   1.0000   1.0000   1.0000   1.0000   1.0000   1.0000   1.0000
     1.0000   1.0000   1.0000   1.0000   1.0000   1.0000   1.0000   1.0000
     1.0000   1.0000   1.0000   1.0000   1.0000   1.0000   1.0000   1.0000
     1.0000   1.0000   1.0000   1.0000   1.0000   1.0000   1.0000   1.0000
     1.0000   0.0000   0.0000   0.0000   0.0000   0.0000

          k = 0.0000 0.1925 0.1361 (  5709 PWs)   bands (ev):

   -76.5034 -76.4983 -69.8502 -39.8163 -39.8163 -39.8077 -39.7984 -39.7901
   -39.7901 -35.8985 -35.8978 -35.8978  -2.2949  -2.2820  -2.2820  -2.2296
    -2.2235   7.8660  13.9209  14.9229  15.1155  15.1155  15.3367  15.4213
    15.7129  15.7129  17.0808  17.2875  17.4737  17.5267  17.5267  17.7925
    17.9480  21.3659  21.3829  21.3829  23.4338  23.5071

     occupation numbers 
     1.0000   1.0000   1.0000   1.0000   1.0000   1.0000   1.0000   1.0000
     1.0000   1.0000   1.0000   1.0000   1.0000   1.0000   1.0000   1.0000
     1.0000   1.0000   1.0000   1.0000   1.0000   1.0000   1.0000   1.0000
     1.0000   1.0000   1.0000   1.0000   1.0000   1.0000   1.0000   1.0000
     1.0000   0.0000   0.0000   0.0000   0.0000   0.0000

          k = 0.0000 0.1925 0.2381 (  5688 PWs)   bands (ev):

   -76.5030 -76.4986 -69.8503 -39.8164 -39.8164 -39.8042 -39.8019 -39.7902
   -39.7902 -35.8987 -35.8978 -35.8977  -2.2968  -2.2791  -2.2787  -2.2295
    -2.2205   8.1935  13.6542  14.8715  14.9592  15.3212  15.3328  15.5580
    15.7045  15.7561  16.9966  17.2853  17.3274  17.3833  17.3957  17.7797
    17.9433  20.3788  20.8818  20.9968  23.0996  23.7654

     occupation numbers 
     1.0000   1.0000   1.0000   1.0000   1.0000   1.0000   1.0000   1.0000
     1.0000   1.0000   1.0000   1.0000   1.0000   1.0000   1.0000   1.0000
     1.0000   1.0000   1.0000   1.0000   1.0000   1.0000   1.0000   1.0000
     1.0000   1.0000   1.0000   1.0000   1.0000   1.0000   1.0000   1.0000
     1.0000   0.0000   0.0000   0.0000   0.0000   0.0000

          k = 0.0000 0.1925 0.3402 (  5681 PWs)   bands (ev):

   -76.5026 -76.4990 -69.8503 -39.8155 -39.8155 -39.8056 -39.8006 -39.7912
   -39.7912 -35.8989 -35.8978 -35.8976  -2.2968  -2.2775  -2.2757  -2.2283
    -2.2175   8.6751  13.3405  14.5548  14.7719  15.3044  15.4915  15.6484
    15.8336  15.9260  16.9124  17.1025  17.2588  17.2653  17.3453  17.7413
    17.9176  19.4049  20.5463  20.5498  22.8983  24.6722

     occupation numbers 
     1.0000   1.0000   1.0000   1.0000   1.0000   1.0000   1.0000   1.0000
     1.0000   1.0000   1.0000   1.0000   1.0000   1.0000   1.0000   1.0000
     1.0000   1.0000   1.0000   1.0000   1.0000   1.0000   1.0000   1.0000
     1.0000   1.0000   1.0000   1.0000   1.0000   1.0000   1.0000   1.0000
     1.0000   0.4133   0.0000   0.0000   0.0000   0.0000

          k = 0.0000 0.1925 0.4423 (  5671 PWs)   bands (ev):

   -76.5020 -76.4996 -69.8503 -39.8138 -39.8137 -39.8091 -39.7972 -39.7931
   -39.7930 -35.8989 -35.8978 -35.8976  -2.2951  -2.2773  -2.2738  -2.2261
    -2.2152   9.2602  12.8553  14.2022  14.6697  15.3347  15.5161  15.6091
    16.0812  16.1787  16.8590  16.9289  17.1969  17.1984  17.3493  17.7037
    17.8365  18.6237  20.2158  20.3888  22.7794  25.4080

     occupation numbers 
     1.0000   1.0000   1.0000   1.0000   1.0000   1.0000   1.0000   1.0000
     1.0000   1.0000   1.0000   1.0000   1.0000   1.0000   1.0000   1.0000
     1.0000   1.0000   1.0000   1.0000   1.0000   1.0000   1.0000   1.0000
     1.0000   1.0000   1.0000   1.0000   1.0000   1.0000   1.0000   1.0000
     1.0000   0.9999   0.0000   0.0000   0.0000   0.0000

          k = 0.0000 0.1925-0.6804 (  5662 PWs)   bands (ev):

   -76.5013 -76.5003 -69.8503 -39.8125 -39.8114 -39.8109 -39.7958 -39.7954
   -39.7941 -35.8989 -35.8979 -35.8976  -2.2924  -2.2784  -2.2733  -2.2236
    -2.2147   9.8018  12.3033  14.0623  14.5627  15.3550  15.4981  15.6109
    16.2743  16.3522  16.8274  16.8379  17.1098  17.1904  17.3816  17.7170
    17.7285  18.1453  19.9971  20.4185  22.7306  25.3099

     occupation numbers 
     1.0000   1.0000   1.0000   1.0000   1.0000   1.0000   1.0000   1.0000
     1.0000   1.0000   1.0000   1.0000   1.0000   1.0000   1.0000   1.0000
     1.0000   1.0000   1.0000   1.0000   1.0000   1.0000   1.0000   1.0000
     1.0000   1.0000   1.0000   1.0000   1.0000   1.0000   1.0000   1.0000
     1.0000   1.0000   0.0005   0.0000   0.0000   0.0000

          k = 0.0000 0.1925-0.5784 (  5671 PWs)   bands (ev):

   -76.5010 -76.5006 -69.8503 -39.8150 -39.8083 -39.8078 -39.7990 -39.7984
   -39.7916 -35.8988 -35.8979 -35.8976  -2.2897  -2.2800  -2.2741  -2.2216
    -2.2160   9.9100  12.1986  14.0730  14.4553  15.3395  15.4727  15.6471
    16.3311  16.4021  16.7806  16.8288  17.0478  17.2223  17.3078  17.7186
    17.8395  18.0698  19.8890  20.6461  22.7434  25.2533

     occupation numbers 
     1.0000   1.0000   1.0000   1.0000   1.0000   1.0000   1.0000   1.0000
     1.0000   1.0000   1.0000   1.0000   1.0000   1.0000   1.0000   1.0000
     1.0000   1.0000   1.0000   1.0000   1.0000   1.0000   1.0000   1.0000
     1.0000   1.0000   1.0000   1.0000   1.0000   1.0000   1.0000   1.0000
     1.0000   1.0000   0.0031   0.0000   0.0000   0.0000
[...]

   -74.9817 -74.9795 -66.6288 -38.3440 -38.3291 -38.3286 -38.3261 -38.3254
   -38.3106 -32.7543 -32.7537 -32.7533  -2.2888  -2.2848  -2.2775  -2.2294
    -2.2275   9.4396  13.4454  14.5053  15.4831  16.4442  17.0383  17.1746
    17.2669  17.4998  17.9769  18.1703  18.2769  19.5979  19.6765  19.7881
    19.8492  20.4878  20.6400  21.8742  23.3808  26.9119

     occupation numbers 
     1.0000   1.0000   1.0000   1.0000   1.0000   1.0000   1.0000   1.0000
     1.0000   1.0000   1.0000   1.0000   1.0000   1.0000   1.0000   1.0000
     1.0000   1.0000   1.0000   1.0000   1.0000   1.0000   1.0000   1.0000
     1.0000   1.0000   1.0000   1.0000   1.0000   0.1108   0.0514   0.0135
     0.0057   0.0000   0.0000   0.0000   0.0000   0.0000

          k = 0.2500-0.7217-0.4082 (  5679 PWs)   bands (ev):

   -74.9811 -74.9801 -66.6288 -38.3440 -38.3422 -38.3359 -38.3190 -38.3123
   -38.3107 -32.7547 -32.7536 -32.7531  -2.2996  -2.2775  -2.2677  -2.2394
    -2.2192  10.2708  12.9972  14.2228  15.4931  16.2235  17.0254  17.1341
    17.3439  17.7158  17.8033  17.9324  18.4088  19.4787  19.5441  19.6679
    19.8296  19.9040  20.2808  20.3922  23.8338  26.2110

     occupation numbers 
     1.0000   1.0000   1.0000   1.0000   1.0000   1.0000   1.0000   1.0000
     1.0000   1.0000   1.0000   1.0000   1.0000   1.0000   1.0000   1.0000
     1.0000   1.0000   1.0000   1.0000   1.0000   1.0000   1.0000   1.0000
     1.0000   1.0000   1.0000   1.0000   1.0000   0.2733   0.1730   0.0564
     0.0076   0.0025   0.0000   0.0000   0.0000   0.0000

          k = 0.2500-0.7217-0.3062 (  5665 PWs)   bands (ev):

   -74.9809 -74.9803 -66.6288 -38.3459 -38.3439 -38.3319 -38.3231 -38.3101
   -38.3093 -32.7545 -32.7539 -32.7530  -2.2956  -2.2827  -2.2646  -2.2402
    -2.2191  10.4960  13.2744  13.9170  14.9575  16.3800  17.0762  17.1174
    17.3386  17.7724  17.8094  17.8948  18.4069  19.4819  19.5604  19.6730
    19.8427  19.8787  20.0056  20.0700  24.7359  26.2569

     occupation numbers 
     1.0000   1.0000   1.0000   1.0000   1.0000   1.0000   1.0000   1.0000
     1.0000   1.0000   1.0000   1.0000   1.0000   1.0000   1.0000   1.0000
     1.0000   1.0000   1.0000   1.0000   1.0000   1.0000   1.0000   1.0000
     1.0000   1.0000   1.0000   1.0000   1.0000   0.2678   0.1522   0.0534
     0.0063   0.0037   0.0004   0.0001   0.0000   0.0000

          k = 0.2500-0.7217-0.2041 (  5680 PWs)   bands (ev):

   -74.9806 -74.9806 -66.6288 -38.3466 -38.3445 -38.3275 -38.3275 -38.3092
   -38.3089 -32.7542 -32.7542 -32.7530  -2.2894  -2.2894  -2.2635  -2.2405
    -2.2191  10.5796  13.6350  13.6350  14.6636  16.4441  17.0984  17.0984
    17.3292  17.7947  17.7947  17.8997  18.4247  19.5132  19.5132  19.7455
    19.8437  19.8575  19.8575  19.9636  25.4726  26.4683

     occupation numbers 
     1.0000   1.0000   1.0000   1.0000   1.0000   1.0000   1.0000   1.0000
     1.0000   1.0000   1.0000   1.0000   1.0000   1.0000   1.0000   1.0000
     1.0000   1.0000   1.0000   1.0000   1.0000   1.0000   1.0000   1.0000
     1.0000   1.0000   1.0000   1.0000   1.0000   0.2171   0.2171   0.0233
     0.0062   0.0051   0.0051   0.0009   0.0000   0.0000

          k = 0.2500-0.6255 0.0680 (  5680 PWs)   bands (ev):

   -74.9807 -74.9805 -66.6288 -38.3433 -38.3365 -38.3362 -38.3186 -38.3182
   -38.3113 -32.7545 -32.7537 -32.7531  -2.2950  -2.2796  -2.2719  -2.2349
    -2.2214  10.2228  12.7432  14.2507  15.6992  16.1664  16.9912  17.2250
    17.4404  17.5691  17.9452  18.0204  18.2499  19.4591  19.6142  19.7253
    19.7604  19.9163  20.5143  20.9480  23.4353  27.0357

     occupation numbers 
     1.0000   1.0000   1.0000   1.0000   1.0000   1.0000   1.0000   1.0000
     1.0000   1.0000   1.0000   1.0000   1.0000   1.0000   1.0000   1.0000
     1.0000   1.0000   1.0000   1.0000   1.0000   1.0000   1.0000   1.0000
     1.0000   1.0000   1.0000   1.0000   1.0000   0.3081   0.0956   0.0298
     0.0194   0.0020   0.0000   0.0000   0.0000   0.0000

          k = 0.2500-0.6255 0.1701 (  5674 PWs)   bands (ev):

   -74.9809 -74.9803 -66.6288 -38.3409 -38.3395 -38.3318 -38.3231 -38.3148
   -38.3140 -32.7545 -32.7537 -32.7531  -2.2933  -2.2824  -2.2721  -2.2336
    -2.2219  10.1099  12.6229  14.5513  15.5641  16.3253  17.0188  17.1142
    17.4290  17.5820  17.9663  18.0099  18.2755  19.5169  19.6251  19.6572
    19.8268  19.8729  20.8128  20.9834  23.8691  25.5970

     occupation numbers 
     1.0000   1.0000   1.0000   1.0000   1.0000   1.0000   1.0000   1.0000
     1.0000   1.0000   1.0000   1.0000   1.0000   1.0000   1.0000   1.0000
     1.0000   1.0000   1.0000   1.0000   1.0000   1.0000   1.0000   1.0000
     1.0000   1.0000   1.0000   1.0000   1.0000   0.2114   0.0864   0.0629
     0.0079   0.0040   0.0000   0.0000   0.0000   0.0000

          k = 0.2500-0.6255 0.2722 (  5671 PWs)   bands (ev):

   -74.9810 -74.9802 -66.6288 -38.3426 -38.3370 -38.3280 -38.3268 -38.3176
   -38.3121 -32.7544 -32.7538 -32.7532  -2.2905  -2.2848  -2.2730  -2.2322
    -2.2232  10.0090  12.7507  14.5072  15.5241  16.3528  17.0262  17.1381
    17.4144  17.5659  18.0124  18.0226  18.2348  19.5181  19.6584  19.6851
    19.8117  19.9526  20.7747  21.1558  23.9053  25.4919

     occupation numbers 
     1.0000   1.0000   1.0000   1.0000   1.0000   1.0000   1.0000   1.0000
     1.0000   1.0000   1.0000   1.0000   1.0000   1.0000   1.0000   1.0000
     1.0000   1.0000   1.0000   1.0000   1.0000   1.0000   1.0000   1.0000
     1.0000   1.0000   1.0000   1.0000   1.0000   0.2096   0.0622   0.0469
     0.0098   0.0011   0.0000   0.0000   0.0000   0.0000

          k = 0.2500-0.6255 0.3742 (  5675 PWs)   bands (ev):

   -74.9811 -74.9801 -66.6288 -38.3442 -38.3330 -38.3326 -38.3222 -38.3216
   -38.3104 -32.7543 -32.7539 -32.7532  -2.2896  -2.2841  -2.2742  -2.2318
    -2.2243   9.9602  13.0477  14.1891  15.5843  16.2796  17.0028  17.2774
    17.4325  17.4689  18.0289  18.1017  18.1498  19.5226  19.6578  19.6930
    19.8389  20.0823  20.5178  21.3157  23.4073  26.9420

     occupation numbers 
     1.0000   1.0000   1.0000   1.0000   1.0000   1.0000   1.0000   1.0000
     1.0000   1.0000   1.0000   1.0000   1.0000   1.0000   1.0000   1.0000
     1.0000   1.0000   1.0000   1.0000   1.0000   1.0000   1.0000   1.0000
     1.0000   1.0000   1.0000   1.0000   1.0000   0.2030   0.0625   0.0430
     0.0067   0.0001   0.0000   0.0000   0.0000   0.0000

          k = 0.2500-0.6255 0.4763 (  5676 PWs)   bands (ev):

   -74.9811 -74.9801 -66.6288 -38.3448 -38.3372 -38.3282 -38.3267 -38.3174
   -38.3098 -32.7542 -32.7540 -32.7532  -2.2879  -2.2875  -2.2716  -2.2338
    -2.2232   9.9933  13.2489  14.0430  15.4928  16.2888  17.0179  17.2643
    17.3186  17.5930  17.9892  18.0088  18.2562  19.5276  19.6277  19.7293
    19.8175  20.1574  20.3152  20.9470  23.9411  26.3805

     occupation numbers 
     1.0000   1.0000   1.0000   1.0000   1.0000   1.0000   1.0000   1.0000
     1.0000   1.0000   1.0000   1.0000   1.0000   1.0000   1.0000   1.0000
     1.0000   1.0000   1.0000   1.0000   1.0000   1.0000   1.0000   1.0000
     1.0000   1.0000   1.0000   1.0000   1.0000   0.1957   0.0842   0.0284
     0.0090   0.0000   0.0000   0.0000   0.0000   0.0000

          k = 0.2500-0.6255 0.5784 (  5668 PWs)   bands (ev):

   -74.9812 -74.9800 -66.6288 -38.3444 -38.3408 -38.3314 -38.3235 -38.3136
   -38.3105 -32.7545 -32.7538 -32.7531  -2.2943  -2.2830  -2.2686  -2.2368
    -2.2210  10.1083  13.1142  14.2663  15.3329  16.3379  17.0542  17.1106
    17.3182  17.7109  17.8932  17.9312  18.3683  19.5224  19.5869  19.7021
    19.8256  19.9803  20.3663  20.5283  24.6247  25.6170

     occupation numbers 
     1.0000   1.0000   1.0000   1.0000   1.0000   1.0000   1.0000   1.0000
     1.0000   1.0000   1.0000   1.0000   1.0000   1.0000   1.0000   1.0000
     1.0000   1.0000   1.0000   1.0000   1.0000   1.0000   1.0000   1.0000
     1.0000   1.0000   1.0000   1.0000   1.0000   0.2032   0.1220   0.0389
     0.0081   0.0007   0.0000   0.0000   0.0000   0.0000

          k = 0.2500-0.6255-0.5443 (  5679 PWs)   bands (ev):

   -74.9811 -74.9801 -66.6288 -38.3440 -38.3422 -38.3359 -38.3190 -38.3123
   -38.3107 -32.7547 -32.7536 -32.7531  -2.2996  -2.2775  -2.2677  -2.2394
    -2.2192  10.2708  12.9972  14.2228  15.4931  16.2235  17.0254  17.1341
    17.3439  17.7158  17.8033  17.9324  18.4088  19.4787  19.5441  19.6679
    19.8296  19.9040  20.2808  20.3922  23.8338  26.2110

     occupation numbers 
     1.0000   1.0000   1.0000   1.0000   1.0000   1.0000   1.0000   1.0000
     1.0000   1.0000   1.0000   1.0000   1.0000   1.0000   1.0000   1.0000
     1.0000   1.0000   1.0000   1.0000   1.0000   1.0000   1.0000   1.0000
     1.0000   1.0000   1.0000   1.0000   1.0000   0.2733   0.1730   0.0564
     0.0076   0.0025   0.0000   0.0000   0.0000   0.0000

          k = 0.2500-0.6255-0.4423 (  5679 PWs)   bands (ev):

   -74.9811 -74.9801 -66.6288 -38.3455 -38.3399 -38.3396 -38.3153 -38.3150
   -38.3090 -32.7548 -32.7535 -32.7530  -2.3019  -2.2737  -2.2681  -2.2408
    -2.2184  10.4206  13.0475  13.9357  15.8791  15.8808  17.0173  17.2052
    17.3661  17.7035  17.7627  17.9411  18.3838  19.4276  19.4962  19.7516
    19.7890  19.9487  20.1270  20.2794  23.4474  26.1435

     occupation numbers 
     1.0000   1.0000   1.0000   1.0000   1.0000   1.0000   1.0000   1.0000
     1.0000   1.0000   1.0000   1.0000   1.0000   1.0000   1.0000   1.0000
     1.0000   1.0000   1.0000   1.0000   1.0000   1.0000   1.0000   1.0000
     1.0000   1.0000   1.0000   1.0000   1.0000   0.3679   0.2440   0.0216
     0.0134   0.0012   0.0000   0.0000   0.0000   0.0000

          k = 0.2500-0.6255-0.3402 (  5665 PWs)   bands (ev):

   -74.9810 -74.9802 -66.6288 -38.3461 -38.3426 -38.3362 -38.3188 -38.3121
   -38.3085 -32.7548 -32.7536 -32.7530  -2.3005  -2.2766  -2.2659  -2.2411
    -2.2184  10.5018  13.1901  13.8031  15.3867  16.2091  17.0368  17.1895
    17.3584  17.7407  17.7571  17.9277  18.3857  19.4292  19.5294  19.6954
    19.8479  19.9944  20.0029  20.0797  23.8201  26.1622

     occupation numbers 
     1.0000   1.0000   1.0000   1.0000   1.0000   1.0000   1.0000   1.0000
     1.0000   1.0000   1.0000   1.0000   1.0000   1.0000   1.0000   1.0000
     1.0000   1.0000   1.0000   1.0000   1.0000   1.0000   1.0000   1.0000
     1.0000   1.0000   1.0000   1.0000   1.0000   0.3649   0.1931   0.0419
     0.0058   0.0005   0.0004   0.0001   0.0000   0.0000

          k = 0.2500-0.6255-0.2381 (  5665 PWs)   bands (ev):

   -74.9809 -74.9803 -66.6288 -38.3459 -38.3439 -38.3319 -38.3231 -38.3101
   -38.3093 -32.7545 -32.7539 -32.7530  -2.2956  -2.2827  -2.2646  -2.2402
    -2.2191  10.4960  13.2743  13.9170  14.9575  16.3800  17.0762  17.1174
    17.3386  17.7724  17.8094  17.8948  18.4069  19.4819  19.5603  19.6730
    19.8427  19.8787  20.0056  20.0700  24.7359  26.2570

     occupation numbers 
     1.0000   1.0000   1.0000   1.0000   1.0000   1.0000   1.0000   1.0000
     1.0000   1.0000   1.0000   1.0000   1.0000   1.0000   1.0000   1.0000
     1.0000   1.0000   1.0000   1.0000   1.0000   1.0000   1.0000   1.0000
     1.0000   1.0000   1.0000   1.0000   1.0000   0.2678   0.1522   0.0534
     0.0063   0.0037   0.0004   0.0001   0.0000   0.0000

          k = 0.2500-0.6255-0.1361 (  5673 PWs)   bands (ev):

   -74.9807 -74.9804 -66.6288 -38.3457 -38.3430 -38.3277 -38.3273 -38.3113
   -38.3093 -32.7542 -32.7542 -32.7530  -2.2890  -2.2889  -2.2657  -2.2385
    -2.2201  10.4258  13.3762  13.7400  15.0791  16.3485  17.0590  17.1563
    17.3505  17.7657  17.8517  17.9098  18.3569  19.4882  19.5838  19.7023
    19.8018  19.9297  20.0793  20.1888  24.8601  26.2273

     occupation numbers 
     1.0000   1.0000   1.0000   1.0000   1.0000   1.0000   1.0000   1.0000
     1.0000   1.0000   1.0000   1.0000   1.0000   1.0000   1.0000   1.0000
     1.0000   1.0000   1.0000   1.0000   1.0000   1.0000   1.0000   1.0000
     1.0000   1.0000   1.0000   1.0000   1.0000   0.2571   0.1253   0.0388
     0.0113   0.0016   0.0001   0.0000   0.0000   0.0000

          k = 0.2500-0.6255-0.0340 (  5670 PWs)   bands (ev):

   -74.9806 -74.9806 -66.6288 -38.3450 -38.3402 -38.3322 -38.3227 -38.3144
   -38.3097 -32.7544 -32.7539 -32.7531  -2.2935  -2.2825  -2.2689  -2.2365
    -2.2210  10.3287  13.0875  13.8715  15.4925  16.2034  17.0155  17.2349
    17.4066  17.6463  17.9081  17.9875  18.2711  19.4564  19.6215  19.6697
    19.8087  19.9659  20.2437  20.5610  23.8800  26.7014

     occupation numbers 
     1.0000   1.0000   1.0000   1.0000   1.0000   1.0000   1.0000   1.0000
     1.0000   1.0000   1.0000   1.0000   1.0000   1.0000   1.0000   1.0000
     1.0000   1.0000   1.0000   1.0000   1.0000   1.0000   1.0000   1.0000
     1.0000   1.0000   1.0000   1.0000   1.0000   0.3131   0.0893   0.0553
     0.0102   0.0009   0.0000   0.0000   0.0000   0.0000

          k = 0.3333-0.5774 0.0000 (  5700 PWs)   bands (ev):

   -74.9806 -74.9806 -66.6288 -38.3455 -38.3368 -38.3364 -38.3185 -38.3180
   -38.3091 -32.7544 -32.7538 -32.7531  -2.2952  -2.2792  -2.2706  -2.2365
    -2.2212  10.3240  13.3436  13.5219  15.7287  16.0397  16.9963  17.3492
    17.4002  17.5811  17.9257  18.0152  18.2225  19.4348  19.5946  19.6862
    19.8543  20.0680  20.1269  20.6715  23.4397  27.6431

     occupation numbers 
     1.0000   1.0000   1.0000   1.0000   1.0000   1.0000   1.0000   1.0000
     1.0000   1.0000   1.0000   1.0000   1.0000   1.0000   1.0000   1.0000
     1.0000   1.0000   1.0000   1.0000   1.0000   1.0000   1.0000   1.0000
     1.0000   1.0000   1.0000   1.0000   1.0000   0.3539   0.1140   0.0463
     0.0053   0.0001   0.0000   0.0000   0.0000   0.0000

          k = 0.3333-0.5774 0.1021 (  5670 PWs)   bands (ev):

   -74.9806 -74.9806 -66.6288 -38.3450 -38.3402 -38.3322 -38.3227 -38.3144
   -38.3097 -32.7544 -32.7539 -32.7531  -2.2935  -2.2825  -2.2689  -2.2365
    -2.2210  10.3287  13.0875  13.8715  15.4925  16.2034  17.0155  17.2349
    17.4066  17.6463  17.9081  17.9875  18.2711  19.4564  19.6215  19.6697
    19.8087  19.9659  20.2437  20.5610  23.8800  26.7014

     occupation numbers 
     1.0000   1.0000   1.0000   1.0000   1.0000   1.0000   1.0000   1.0000
     1.0000   1.0000   1.0000   1.0000   1.0000   1.0000   1.0000   1.0000
     1.0000   1.0000   1.0000   1.0000   1.0000   1.0000   1.0000   1.0000
     1.0000   1.0000   1.0000   1.0000   1.0000   0.3131   0.0893   0.0553
     0.0102   0.0009   0.0000   0.0000   0.0000   0.0000

          k = 0.3333-0.5774 0.2041 (  5678 PWs)   bands (ev):

   -74.9806 -74.9806 -66.6288 -38.3439 -38.3423 -38.3276 -38.3273 -38.3115
   -38.3115 -32.7543 -32.7540 -32.7531  -2.2901  -2.2870  -2.2678  -2.2366
    -2.2208  10.3334  12.9661  14.1145  15.2907  16.3076  17.0801  17.1005
    17.4052  17.6886  17.9205  17.9364  18.3171  19.5241  19.5615  19.6585
    19.8278  19.8810  20.3650  20.4102  24.6334  25.5861

     occupation numbers 
     1.0000   1.0000   1.0000   1.0000   1.0000   1.0000   1.0000   1.0000
     1.0000   1.0000   1.0000   1.0000   1.0000   1.0000   1.0000   1.0000
     1.0000   1.0000   1.0000   1.0000   1.0000   1.0000   1.0000   1.0000
     1.0000   1.0000   1.0000   1.0000   1.0000   0.2008   0.1507   0.0621
     0.0078   0.0035   0.0000   0.0000   0.0000   0.0000

     the Fermi energy is    19.3627 ev

!    total energy              =   -1524.77573522 Ry
     total all-electron energy =    -20474.056746 Ry
     estimated scf accuracy    <          4.5E-09 Ry
     smearing contrib. (-TS)   =      -0.00952911 Ry
     internal energy E=F+TS    =   -1524.76620612 Ry

     The total energy is F=E-TS. E is the sum of the following terms:
     one-electron contribution =    -441.56565416 Ry
     hartree contribution      =     270.98512385 Ry
     xc contribution           =    -137.83425996 Ry
     ewald contribution        =    -677.45861314 Ry
     one-center paw contrib.   =    -538.89280271 Ry
      -> PAW hartree energy AE =     183.20685720 Ry
      -> PAW hartree energy PS =    -181.90802536 Ry
      -> PAW xc energy AE      =    -110.23647766 Ry
      -> PAW xc energy PS      =      26.14988335 Ry
      -> total E_H with PAW    =     272.28395569 Ry
      -> total E_XC with PAW   =    -221.92085427 Ry

     total magnetization       =     5.25 Bohr mag/cell
     absolute magnetization    =     5.55 Bohr mag/cell

     convergence has been achieved in  18 iterations

     Writing all to output data dir ./outdir/Co2FeSn.save/
 
     init_run     :      5.26s CPU      5.76s WALL (       1 calls)
     electrons    :    296.94s CPU    308.03s WALL (       1 calls)

     Called by init_run:
     wfcinit      :      4.77s CPU      4.99s WALL (       1 calls)
     wfcinit:atom :      0.05s CPU      0.05s WALL (     378 calls)
     wfcinit:wfcr :      4.49s CPU      4.69s WALL (     378 calls)
     potinit      :      0.19s CPU      0.26s WALL (       1 calls)
     hinit0       :      0.14s CPU      0.25s WALL (       1 calls)

     Called by electrons:
     c_bands      :    256.43s CPU    266.01s WALL (      18 calls)
     sum_band     :     35.96s CPU     37.31s WALL (      18 calls)
     v_of_rho     :      0.55s CPU      0.59s WALL (      19 calls)
     v_h          :      0.02s CPU      0.02s WALL (      19 calls)
     v_xc         :      0.54s CPU      0.58s WALL (      19 calls)
     newd         :      1.28s CPU      1.29s WALL (      19 calls)
     PAW_pot      :      2.71s CPU      2.76s WALL (      19 calls)
     mix_rho      :      0.16s CPU      0.23s WALL (      18 calls)

     Called by c_bands:
     init_us_2    :      2.24s CPU      2.53s WALL (   13986 calls)
     init_us_2:cp :      2.19s CPU      2.49s WALL (   13986 calls)
     cegterg      :    245.44s CPU    252.23s WALL (    6804 calls)

     Called by sum_band:
     sum_band:wei :      0.44s CPU      0.44s WALL (      18 calls)
     sum_band:loo :     33.08s CPU     34.39s WALL (      18 calls)
     sum_band:buf :      0.30s CPU      0.31s WALL (    6804 calls)
     sum_band:ini :      1.07s CPU      1.10s WALL (    6804 calls)
     sum_band:cal :      2.98s CPU      3.07s WALL (    6804 calls)
     sum_band:bec :      0.18s CPU      0.21s WALL (    6804 calls)
     addusdens    :      2.35s CPU      2.38s WALL (      18 calls)
     addusd:skk   :      0.00s CPU      0.00s WALL (      54 calls)
     addusd:dgemm :      1.04s CPU      1.07s WALL (     108 calls)
     addusd:qvan2 :      1.28s CPU      1.28s WALL (     108 calls)

     Called by *egterg:
     cdiaghg      :     51.11s CPU     51.58s WALL (   29962 calls)
     cegterg:over :     10.37s CPU     10.55s WALL (   23158 calls)
     cegterg:upda :      4.81s CPU      4.89s WALL (   23158 calls)
     cegterg:last :     10.17s CPU     10.23s WALL (   13585 calls)
     h_psi        :    158.59s CPU    164.68s WALL (   30340 calls)
     s_psi        :      6.66s CPU      6.78s WALL (   30340 calls)
     g_psi        :      0.80s CPU      0.81s WALL (   23158 calls)

     Called by h_psi:
     h_psi:calbec :      9.38s CPU      9.73s WALL (   30340 calls)
     vloc_psi     :    140.91s CPU    146.46s WALL (   30340 calls)
     add_vuspsi   :      7.17s CPU      7.36s WALL (   30340 calls)

     General routines
     calbec       :     12.21s CPU     12.70s WALL (   37144 calls)
     fft          :      0.20s CPU      0.25s WALL (     469 calls)
     ffts         :      0.07s CPU      0.07s WALL (     435 calls)
     fftw         :    154.91s CPU    161.13s WALL ( 1535540 calls)
     interpolate  :      0.03s CPU      0.03s WALL (      38 calls)
 
     Parallel routines

     PAW routines
     PAW_pot      :      2.71s CPU      2.76s WALL (      19 calls)
     PAW_symme    :      0.01s CPU      0.01s WALL (      37 calls)
 
     PWSCF        :   5m 6.41s CPU   5m21.55s WALL

 
   This run was terminated on:  15:54:33   6Oct2025            

=------------------------------------------------------------------------------=
   JOB DONE.
=------------------------------------------------------------------------------=
