
     Program PWSCF v.7.1 starts on  9Oct2025 at  1:22:15 

     This program is part of the open-source Quantum ESPRESSO suite
     for quantum simulation of materials; please cite
         "P. Giannozzi et al., J. Phys.:Condens. Matter 21 395502 (2009);
         "P. Giannozzi et al., J. Phys.:Condens. Matter 29 465901 (2017);
         "P. Giannozzi et al., J. Chem. Phys. 152 154105 (2020);
          URL http://www.quantum-espresso.org", 
     in publications or presentations arising from this work. More details at
     http://www.quantum-espresso.org/quote

     Parallel version (MPI), running on    20 processors

     MPI processes distributed on     1 nodes
     60521 MiB available memory on the printing compute node when the environment starts
 
     Reading input from Co2FeSn_18_kpoints.in

     Current dimensions of program PWSCF are:
     Max number of different atomic species (ntypx) = 10
     Max number of k-points (npk) =  40000
     Max angular momentum in pseudopotentials (lmaxx) =  4
     file Co.pbe-spn-kjpaw_psl.0.3.1.UPF: wavefunction(s)  3P 3D renormalized
     file Fe.pbe-spn-kjpaw_psl.1.0.0.UPF: wavefunction(s)  3P 3D renormalized
     file Sn.pbe-dn-kjpaw_psl.1.0.0.UPF: wavefunction(s)  5S 5P 4D renormalized
 
     R & G space division:  proc/nbgrp/npool/nimage =      20
     Subspace diagonalization in iterative solution of the eigenvalue problem:
     a serial algorithm will be used

 
     Parallelization info
     --------------------
     sticks:   dense  smooth     PW     G-vecs:    dense   smooth      PW
     Min         167      83     24                 6419     2261     355
     Max         168      84     26                 6424     2265     357
     Sum        3355    1663    499               128421    45239    7119
 
     Using Slab Decomposition
 


     bravais-lattice index     =           14
     lattice parameter (alat)  =       7.8036  a.u.
     unit-cell volume          =     336.0264 (a.u.)^3
     number of atoms/cell      =            4
     number of atomic types    =            3
     number of electrons       =        64.00
     number of Kohn-Sham states=           38
     kinetic-energy cutoff     =     100.0000  Ry
     charge density cutoff     =     800.0000  Ry
     scf convergence threshold =      1.0E-08
     mixing beta               =       0.2000
     number of iterations used =            8  plain     mixing
     Exchange-correlation= SLA  PW   PBX  PBC
                           (   1   4   3   4   0   0   0)

     celldm(1)=   7.803620  celldm(2)=   1.000000  celldm(3)=   1.000000
     celldm(4)=   0.500000  celldm(5)=   0.500000  celldm(6)=   0.500000

     crystal axes: (cart. coord. in units of alat)
               a(1) = (   1.000000   0.000000   0.000000 )  
               a(2) = (   0.500000   0.866025   0.000000 )  
               a(3) = (   0.500000   0.288675   0.816497 )  

     reciprocal axes: (cart. coord. in units 2 pi/alat)
               b(1) = (  1.000000 -0.577350 -0.408248 )  
               b(2) = (  0.000000  1.154701 -0.408248 )  
               b(3) = (  0.000000  0.000000  1.224745 )  


     PseudoPot. # 1 for Co read from file:
     <HPC_PATH>
     MD5 check sum: 3c0a43779828c046024e4f3be63f8e67
     Pseudo is Projector augmented-wave + core cor, Zval = 17.0
     Generated using &quot;atomic&quot; code by A. Dal Corso  v.6.2.2
     Shape of augmentation charge: PSQ
     Using radial grid of 1193 points,  6 beta functions with: 
                l(1) =   0
                l(2) =   0
                l(3) =   1
                l(4) =   1
                l(5) =   2
                l(6) =   2
     Q(r) pseudized with 0 coefficients 


     PseudoPot. # 2 for Fe read from file:
     <HPC_PATH>
     MD5 check sum: fc81f059e5c5069939230b1155715ae8
     Pseudo is Projector augmented-wave + core cor, Zval = 16.0
     Generated using &quot;atomic&quot; code by A. Dal Corso  v.6.3
     Shape of augmentation charge: PSQ
     Using radial grid of 1191 points,  6 beta functions with: 
                l(1) =   0
                l(2) =   0
                l(3) =   1
                l(4) =   1
                l(5) =   2
                l(6) =   2
     Q(r) pseudized with 0 coefficients 


     PseudoPot. # 3 for Sn read from file:
     <HPC_PATH>
     MD5 check sum: 67f11dec737d427557dc41ea34975807
     Pseudo is Projector augmented-wave + core cor, Zval = 14.0
     Generated using &quot;atomic&quot; code by A. Dal Corso  v.6.3
     Shape of augmentation charge: PSQ
     Using radial grid of 1243 points,  6 beta functions with: 
                l(1) =   0
                l(2) =   0
                l(3) =   1
                l(4) =   1
                l(5) =   2
                l(6) =   2
     Q(r) pseudized with 0 coefficients 


     atomic species   valence    mass     pseudopotential
        Co            17.00    58.93300     Co( 1.00)
        Fe            16.00    55.84500     Fe( 1.00)
        Sn            14.00   118.71000     Sn( 1.00)

     Starting magnetic structure 
     atomic species   magnetization
        Co           0.500
        Fe           0.500
        Sn           0.000

     12 Sym. Ops., with inversion, found



   Cartesian axes

     site n.     atom                  positions (alat units)
         1           Fe  tau(   1) = (   1.0000000   0.5773503   0.4082483  )
         2           Sn  tau(   2) = (   0.0000000   0.0000000   0.0000000  )
         3           Co  tau(   3) = (   0.5000000   0.2886751   0.2041241  )
         4           Co  tau(   4) = (   1.5000000   0.8660254   0.6123724  )

     number of k points=   580  Gaussian smearing, width (Ry)=  0.0200

     Number of k-points >= 100: set verbosity='high' to print them.

     Dense  grid:   128421 G-vectors     FFT dimensions: (  72,  72,  72)

     Smooth grid:    45239 G-vectors     FFT dimensions: (  50,  50,  50)

     Estimated max dynamical RAM per process >     224.67 MB

     Estimated total dynamical RAM >       4.39 GB

     Check: negative core charge=   -0.000010
     Generating pointlists ...
     new r_m :   0.2526 (alat units)  1.9712 (a.u.) for type    1
     new r_m :   0.2526 (alat units)  1.9712 (a.u.) for type    2
     new r_m :   0.2526 (alat units)  1.9712 (a.u.) for type    3

     Initial potential from superposition of free atoms

     starting charge      63.9976, renormalised to      64.0000
     Starting wfcs are   39 randomized atomic wfcs
     Checking if some PAW data can be deallocated... 

     total cpu time spent up to now is       16.4 secs

     per-process dynamical memory:   277.6 Mb

     Self-consistent Calculation

     iteration #  1     ecut=   100.00 Ry     beta= 0.20
     Davidson diagonalization with overlap
     ethr =  1.00E-02,  avg # of iterations =  4.7

     total cpu time spent up to now is       71.6 secs

     total energy              =   -1523.36904861 Ry
     estimated scf accuracy    <       2.81362232 Ry

     total magnetization       =     8.04 Bohr mag/cell
     absolute magnetization    =     8.55 Bohr mag/cell

     iteration #  2     ecut=   100.00 Ry     beta= 0.20
     Davidson diagonalization with overlap
     ethr =  4.40E-03,  avg # of iterations =  1.8

     negative rho (up, down):  0.000E+00 5.875E-05

     total cpu time spent up to now is      113.2 secs

     total energy              =   -1524.28101092 Ry
     estimated scf accuracy    <       2.00388261 Ry

     total magnetization       =     7.47 Bohr mag/cell
     absolute magnetization    =     8.28 Bohr mag/cell

     iteration #  3     ecut=   100.00 Ry     beta= 0.20
     Davidson diagonalization with overlap
     ethr =  3.13E-03,  avg # of iterations =  1.5

     negative rho (up, down):  0.000E+00 1.493E-04

     total cpu time spent up to now is      153.2 secs

     total energy              =   -1524.53032967 Ry
     estimated scf accuracy    <       2.32658584 Ry

     total magnetization       =     6.87 Bohr mag/cell
     absolute magnetization    =     7.68 Bohr mag/cell

     iteration #  4     ecut=   100.00 Ry     beta= 0.20
     Davidson diagonalization with overlap
     ethr =  3.13E-03,  avg # of iterations =  1.0

     negative rho (up, down):  0.000E+00 1.486E-04

     total cpu time spent up to now is      191.3 secs

     total energy              =   -1524.74397769 Ry
     estimated scf accuracy    <       0.08293295 Ry

     total magnetization       =     5.54 Bohr mag/cell
     absolute magnetization    =     6.40 Bohr mag/cell

     iteration #  5     ecut=   100.00 Ry     beta= 0.20
     Davidson diagonalization with overlap
     ethr =  1.30E-04,  avg # of iterations =  5.9

     negative rho (up, down):  0.000E+00 1.426E-04

     total cpu time spent up to now is      255.1 secs

     total energy              =   -1524.76360525 Ry
     estimated scf accuracy    <       0.02522220 Ry

     total magnetization       =     5.44 Bohr mag/cell
     absolute magnetization    =     6.05 Bohr mag/cell

     iteration #  6     ecut=   100.00 Ry     beta= 0.20
     Davidson diagonalization with overlap
     ethr =  3.94E-05,  avg # of iterations =  3.5

     negative rho (up, down):  0.000E+00 1.194E-04

     total cpu time spent up to now is      307.5 secs

     total energy              =   -1524.77088677 Ry
     estimated scf accuracy    <       0.00780598 Ry

     total magnetization       =     5.23 Bohr mag/cell
     absolute magnetization    =     5.75 Bohr mag/cell

     iteration #  7     ecut=   100.00 Ry     beta= 0.20
     Davidson diagonalization with overlap
     c_bands:  1 eigenvalues not converged
     c_bands:  1 eigenvalues not converged
     c_bands:  1 eigenvalues not converged
     c_bands:  1 eigenvalues not converged
     c_bands:  1 eigenvalues not converged
     c_bands:  1 eigenvalues not converged
     c_bands:  1 eigenvalues not converged
     c_bands:  1 eigenvalues not converged
     c_bands:  1 eigenvalues not converged
     c_bands:  1 eigenvalues not converged
     ethr =  1.22E-05,  avg # of iterations =  4.7

     negative rho (up, down):  0.000E+00 1.096E-04

     total cpu time spent up to now is      365.9 secs

     total energy              =   -1524.77373942 Ry
     estimated scf accuracy    <       0.02422991 Ry

     total magnetization       =     5.37 Bohr mag/cell
     absolute magnetization    =     5.80 Bohr mag/cell

     iteration #  8     ecut=   100.00 Ry     beta= 0.20
     Davidson diagonalization with overlap
     c_bands:  1 eigenvalues not converged
     ethr =  1.22E-05,  avg # of iterations =  1.6

     negative rho (up, down):  0.000E+00 1.027E-04

     total cpu time spent up to now is      406.7 secs

     total energy              =   -1524.77469688 Ry
     estimated scf accuracy    <       0.00400320 Ry

     total magnetization       =     5.27 Bohr mag/cell
     absolute magnetization    =     5.67 Bohr mag/cell

     iteration #  9     ecut=   100.00 Ry     beta= 0.20
     Davidson diagonalization with overlap
     c_bands:  1 eigenvalues not converged
     ethr =  6.26E-06,  avg # of iterations =  2.5

     negative rho (up, down):  0.000E+00 9.827E-05

     total cpu time spent up to now is      452.3 secs

     total energy              =   -1524.77512768 Ry
     estimated scf accuracy    <       0.00224506 Ry

     total magnetization       =     5.30 Bohr mag/cell
     absolute magnetization    =     5.66 Bohr mag/cell

     iteration # 10     ecut=   100.00 Ry     beta= 0.20
     Davidson diagonalization with overlap
     ethr =  3.51E-06,  avg # of iterations =  2.5

     negative rho (up, down):  0.000E+00 9.928E-05

     total cpu time spent up to now is      496.8 secs

     total energy              =   -1524.77528878 Ry
     estimated scf accuracy    <       0.00049848 Ry

     total magnetization       =     5.30 Bohr mag/cell
     absolute magnetization    =     5.64 Bohr mag/cell

     iteration # 11     ecut=   100.00 Ry     beta= 0.20
     Davidson diagonalization with overlap
     c_bands:  1 eigenvalues not converged
     c_bands:  1 eigenvalues not converged
     c_bands:  1 eigenvalues not converged
     c_bands:  1 eigenvalues not converged
     c_bands:  1 eigenvalues not converged
     c_bands:  1 eigenvalues not converged
     c_bands:  1 eigenvalues not converged
     ethr =  7.79E-07,  avg # of iterations =  4.2

     negative rho (up, down):  0.000E+00 9.738E-05

     total cpu time spent up to now is      551.2 secs

     total energy              =   -1524.77545605 Ry
     estimated scf accuracy    <       0.00197568 Ry

     total magnetization       =     5.32 Bohr mag/cell
     absolute magnetization    =     5.66 Bohr mag/cell

     iteration # 12     ecut=   100.00 Ry     beta= 0.20
     Davidson diagonalization with overlap
     c_bands:  1 eigenvalues not converged
     ethr =  7.79E-07,  avg # of iterations =  2.5

     negative rho (up, down):  0.000E+00 9.614E-05

     total cpu time spent up to now is      595.9 secs

     total energy              =   -1524.77565234 Ry
     estimated scf accuracy    <       0.00019281 Ry

     total magnetization       =     5.27 Bohr mag/cell
     absolute magnetization    =     5.59 Bohr mag/cell

     iteration # 13     ecut=   100.00 Ry     beta= 0.20
     Davidson diagonalization with overlap
     c_bands:  1 eigenvalues not converged
     ethr =  3.01E-07,  avg # of iterations =  3.6

     negative rho (up, down):  0.000E+00 9.658E-05

     total cpu time spent up to now is      646.6 secs

     total energy              =   -1524.77566083 Ry
     estimated scf accuracy    <       0.00011636 Ry

     total magnetization       =     5.27 Bohr mag/cell
     absolute magnetization    =     5.58 Bohr mag/cell

     iteration # 14     ecut=   100.00 Ry     beta= 0.20
     Davidson diagonalization with overlap
     c_bands:  1 eigenvalues not converged
     ethr =  1.82E-07,  avg # of iterations =  3.9

     negative rho (up, down):  0.000E+00 9.766E-05

     total cpu time spent up to now is      700.7 secs

     total energy              =   -1524.77568955 Ry
     estimated scf accuracy    <       0.00000338 Ry

     total magnetization       =     5.26 Bohr mag/cell
     absolute magnetization    =     5.56 Bohr mag/cell

     iteration # 15     ecut=   100.00 Ry     beta= 0.20
     Davidson diagonalization with overlap
     c_bands:  1 eigenvalues not converged
     ethr =  5.29E-09,  avg # of iterations =  8.8

     negative rho (up, down):  0.000E+00 9.799E-05

     total cpu time spent up to now is      799.0 secs

     total energy              =   -1524.77569846 Ry
     estimated scf accuracy    <       0.00002177 Ry

     total magnetization       =     5.27 Bohr mag/cell
     absolute magnetization    =     5.57 Bohr mag/cell

     iteration # 16     ecut=   100.00 Ry     beta= 0.20
     Davidson diagonalization with overlap
     ethr =  5.29E-09,  avg # of iterations =  3.6

     negative rho (up, down):  0.000E+00 9.828E-05

     total cpu time spent up to now is      858.1 secs

     total energy              =   -1524.77570236 Ry
     estimated scf accuracy    <       0.00000067 Ry

     total magnetization       =     5.26 Bohr mag/cell
     absolute magnetization    =     5.56 Bohr mag/cell

     iteration # 17     ecut=   100.00 Ry     beta= 0.20
     Davidson diagonalization with overlap
     ethr =  1.04E-09,  avg # of iterations =  4.9

     negative rho (up, down):  0.000E+00 9.832E-05

     total cpu time spent up to now is      913.0 secs

     total energy              =   -1524.77570237 Ry
     estimated scf accuracy    <       0.00000033 Ry

     total magnetization       =     5.26 Bohr mag/cell
     absolute magnetization    =     5.56 Bohr mag/cell

     iteration # 18     ecut=   100.00 Ry     beta= 0.20
     Davidson diagonalization with overlap
     ethr =  5.10E-10,  avg # of iterations =  4.5

     negative rho (up, down):  0.000E+00 9.837E-05

     total cpu time spent up to now is      973.5 secs

     total energy              =   -1524.77570260 Ry
     estimated scf accuracy    <       0.00000013 Ry

     total magnetization       =     5.26 Bohr mag/cell
     absolute magnetization    =     5.56 Bohr mag/cell

     iteration # 19     ecut=   100.00 Ry     beta= 0.20
     Davidson diagonalization with overlap
     ethr =  2.00E-10,  avg # of iterations =  3.5

     negative rho (up, down):  0.000E+00 9.831E-05

     total cpu time spent up to now is     1023.8 secs

     total energy              =   -1524.77570262 Ry
     estimated scf accuracy    <       0.00000008 Ry

     total magnetization       =     5.26 Bohr mag/cell
     absolute magnetization    =     5.56 Bohr mag/cell

     iteration # 20     ecut=   100.00 Ry     beta= 0.20
     Davidson diagonalization with overlap
     ethr =  1.27E-10,  avg # of iterations =  3.2

     negative rho (up, down):  0.000E+00 9.826E-05
 
     Magnetic moment per site  (integrated on atomic sphere of radius R)
     atom   1 (R=0.253)  charge= 14.4783  magn=  2.7982
     atom   2 (R=0.253)  charge= 11.1692  magn= -0.0097
     atom   3 (R=0.253)  charge= 15.7989  magn=  1.2739
     atom   4 (R=0.253)  charge= 15.7989  magn=  1.2739

     total cpu time spent up to now is     1070.7 secs

     End of self-consistent calculation

     Number of k-points >= 100: set verbosity='high' to print the bands.

     the Fermi energy is    19.3614 ev

!    total energy              =   -1524.77570265 Ry
     total all-electron energy =    -20474.056713 Ry
     estimated scf accuracy    <          4.6E-09 Ry
     smearing contrib. (-TS)   =      -0.00955784 Ry
     internal energy E=F+TS    =   -1524.76614482 Ry

     The total energy is F=E-TS. E is the sum of the following terms:
     one-electron contribution =    -441.56117932 Ry
     hartree contribution      =     270.98110673 Ry
     xc contribution           =    -137.83449060 Ry
     ewald contribution        =    -677.45861314 Ry
     one-center paw contrib.   =    -538.89296849 Ry

     total magnetization       =     5.26 Bohr mag/cell
     absolute magnetization    =     5.56 Bohr mag/cell

     convergence has been achieved in  20 iterations

     negative rho (up, down):  0.000E+00 9.826E-05

     Forces acting on atoms (cartesian axes, Ry/au):

     atom    1 type  2   force =     0.00000000   -0.00000000   -0.00000000
     atom    2 type  3   force =     0.00000000    0.00000000   -0.00000000
     atom    3 type  1   force =    -0.00000000   -0.00000000    0.00000100
     atom    4 type  1   force =     0.00000000   -0.00000000   -0.00000100

     Total force =     0.000001     Total SCF correction =     0.000007
     SCF correction compared to forces is large: reduce conv_thr to get better values


     Computing stress (Cartesian axis) and pressure


     negative rho (up, down):  0.000E+00 9.826E-05
          total   stress  (Ry/bohr**3)                   (kbar)     P=      147.07
   0.00099979   0.00000000   0.00000000          147.07        0.00        0.00
   0.00000000   0.00099979   0.00000000            0.00      147.07        0.00
   0.00000000  -0.00000000   0.00099976            0.00       -0.00      147.07


     Writing all to output data dir ./outdir/Co2FeSn.save/
 
     init_run     :     15.02s CPU     15.85s WALL (       1 calls)
     electrons    :   1024.56s CPU   1054.31s WALL (       1 calls)
     forces       :      3.26s CPU      3.30s WALL (       1 calls)
     stress       :      8.01s CPU      8.06s WALL (       1 calls)

     Called by init_run:
     wfcinit      :     14.53s CPU     15.17s WALL (       1 calls)
     potinit      :      0.19s CPU      0.23s WALL (       1 calls)
     hinit0       :      0.14s CPU      0.23s WALL (       1 calls)

     Called by electrons:
     c_bands      :    903.17s CPU    928.43s WALL (      20 calls)
     sum_band     :    116.80s CPU    121.18s WALL (      20 calls)
     v_of_rho     :      0.57s CPU      0.59s WALL (      21 calls)
     newd         :      1.21s CPU      1.22s WALL (      21 calls)
     PAW_pot      :      2.89s CPU      2.94s WALL (      21 calls)
     mix_rho      :      0.08s CPU      0.09s WALL (      20 calls)

     Called by c_bands:
     init_us_2    :      8.38s CPU      8.80s WALL (   49880 calls)
     init_us_2:cp :      8.19s CPU      8.66s WALL (   49880 calls)
     cegterg      :    867.40s CPU    890.76s WALL (   23200 calls)

     Called by *egterg:
     cdiaghg      :    184.15s CPU    185.70s WALL (  107359 calls)
     h_psi        :    555.41s CPU    576.45s WALL (  108519 calls)
     s_psi        :     23.67s CPU     24.10s WALL (  108519 calls)
     g_psi        :      2.92s CPU      2.95s WALL (   84159 calls)

     Called by h_psi:
     h_psi:calbec :     32.12s CPU     33.20s WALL (  108519 calls)
     vloc_psi     :    494.44s CPU    513.78s WALL (  108519 calls)
     add_vuspsi   :     25.40s CPU     26.06s WALL (  108519 calls)

     General routines
     calbec       :     44.32s CPU     45.87s WALL (  137519 calls)
     fft          :      0.23s CPU      0.26s WALL (     563 calls)
     ffts         :      0.01s CPU      0.02s WALL (      82 calls)
     fftw         :    542.51s CPU    564.26s WALL ( 5375718 calls)
     interpolate  :      0.03s CPU      0.03s WALL (      42 calls)
 
     Parallel routines
 
     PWSCF        :  17m42.57s CPU  18m39.14s WALL

 
   This run was terminated on:   1:40:55   9Oct2025            

=------------------------------------------------------------------------------=
   JOB DONE.
=------------------------------------------------------------------------------=
