
     Program PWSCF v.7.1 starts on  9Oct2025 at  1: 8: 5 

     This program is part of the open-source Quantum ESPRESSO suite
     for quantum simulation of materials; please cite
         "P. Giannozzi et al., J. Phys.:Condens. Matter 21 395502 (2009);
         "P. Giannozzi et al., J. Phys.:Condens. Matter 29 465901 (2017);
         "P. Giannozzi et al., J. Chem. Phys. 152 154105 (2020);
          URL http://www.quantum-espresso.org", 
     in publications or presentations arising from this work. More details at
     http://www.quantum-espresso.org/quote

     Parallel version (MPI), running on    20 processors

     MPI processes distributed on     1 nodes
     60626 MiB available memory on the printing compute node when the environment starts
 
     Reading input from Co2FeSn_16_kpoints.in

     Current dimensions of program PWSCF are:
     Max number of different atomic species (ntypx) = 10
     Max number of k-points (npk) =  40000
     Max angular momentum in pseudopotentials (lmaxx) =  4
     file Co.pbe-spn-kjpaw_psl.0.3.1.UPF: wavefunction(s)  3P 3D renormalized
     file Fe.pbe-spn-kjpaw_psl.1.0.0.UPF: wavefunction(s)  3P 3D renormalized
     file Sn.pbe-dn-kjpaw_psl.1.0.0.UPF: wavefunction(s)  5S 5P 4D renormalized
 
     R & G space division:  proc/nbgrp/npool/nimage =      20
     Subspace diagonalization in iterative solution of the eigenvalue problem:
     a serial algorithm will be used

 
     Parallelization info
     --------------------
     sticks:   dense  smooth     PW     G-vecs:    dense   smooth      PW
     Min         167      83     24                 6419     2261     355
     Max         168      84     26                 6424     2265     357
     Sum        3355    1663    499               128421    45239    7119
 
     Using Slab Decomposition
 


     bravais-lattice index     =           14
     lattice parameter (alat)  =       7.8036  a.u.
     unit-cell volume          =     336.0264 (a.u.)^3
     number of atoms/cell      =            4
     number of atomic types    =            3
     number of electrons       =        64.00
     number of Kohn-Sham states=           38
     kinetic-energy cutoff     =     100.0000  Ry
     charge density cutoff     =     800.0000  Ry
     scf convergence threshold =      1.0E-08
     mixing beta               =       0.2000
     number of iterations used =            8  plain     mixing
     Exchange-correlation= SLA  PW   PBX  PBC
                           (   1   4   3   4   0   0   0)

     celldm(1)=   7.803620  celldm(2)=   1.000000  celldm(3)=   1.000000
     celldm(4)=   0.500000  celldm(5)=   0.500000  celldm(6)=   0.500000

     crystal axes: (cart. coord. in units of alat)
               a(1) = (   1.000000   0.000000   0.000000 )  
               a(2) = (   0.500000   0.866025   0.000000 )  
               a(3) = (   0.500000   0.288675   0.816497 )  

     reciprocal axes: (cart. coord. in units 2 pi/alat)
               b(1) = (  1.000000 -0.577350 -0.408248 )  
               b(2) = (  0.000000  1.154701 -0.408248 )  
               b(3) = (  0.000000  0.000000  1.224745 )  


     PseudoPot. # 1 for Co read from file:
     <HPC_PATH>
     MD5 check sum: 3c0a43779828c046024e4f3be63f8e67
     Pseudo is Projector augmented-wave + core cor, Zval = 17.0
     Generated using &quot;atomic&quot; code by A. Dal Corso  v.6.2.2
     Shape of augmentation charge: PSQ
     Using radial grid of 1193 points,  6 beta functions with: 
                l(1) =   0
                l(2) =   0
                l(3) =   1
                l(4) =   1
                l(5) =   2
                l(6) =   2
     Q(r) pseudized with 0 coefficients 


     PseudoPot. # 2 for Fe read from file:
     <HPC_PATH>
     MD5 check sum: fc81f059e5c5069939230b1155715ae8
     Pseudo is Projector augmented-wave + core cor, Zval = 16.0
     Generated using &quot;atomic&quot; code by A. Dal Corso  v.6.3
     Shape of augmentation charge: PSQ
     Using radial grid of 1191 points,  6 beta functions with: 
                l(1) =   0
                l(2) =   0
                l(3) =   1
                l(4) =   1
                l(5) =   2
                l(6) =   2
     Q(r) pseudized with 0 coefficients 


     PseudoPot. # 3 for Sn read from file:
     <HPC_PATH>
     MD5 check sum: 67f11dec737d427557dc41ea34975807
     Pseudo is Projector augmented-wave + core cor, Zval = 14.0
     Generated using &quot;atomic&quot; code by A. Dal Corso  v.6.3
     Shape of augmentation charge: PSQ
     Using radial grid of 1243 points,  6 beta functions with: 
                l(1) =   0
                l(2) =   0
                l(3) =   1
                l(4) =   1
                l(5) =   2
                l(6) =   2
     Q(r) pseudized with 0 coefficients 


     atomic species   valence    mass     pseudopotential
        Co            17.00    58.93300     Co( 1.00)
        Fe            16.00    55.84500     Fe( 1.00)
        Sn            14.00   118.71000     Sn( 1.00)

     Starting magnetic structure 
     atomic species   magnetization
        Co           0.500
        Fe           0.500
        Sn           0.000

     12 Sym. Ops., with inversion, found



   Cartesian axes

     site n.     atom                  positions (alat units)
         1           Fe  tau(   1) = (   1.0000000   0.5773503   0.4082483  )
         2           Sn  tau(   2) = (   0.0000000   0.0000000   0.0000000  )
         3           Co  tau(   3) = (   0.5000000   0.2886751   0.2041241  )
         4           Co  tau(   4) = (   1.5000000   0.8660254   0.6123724  )

     number of k points=   417  Gaussian smearing, width (Ry)=  0.0200

     Number of k-points >= 100: set verbosity='high' to print them.

     Dense  grid:   128421 G-vectors     FFT dimensions: (  72,  72,  72)

     Smooth grid:    45239 G-vectors     FFT dimensions: (  50,  50,  50)

     Estimated max dynamical RAM per process >     171.18 MB

     Estimated total dynamical RAM >       3.34 GB

     Check: negative core charge=   -0.000010
     Generating pointlists ...
     new r_m :   0.2526 (alat units)  1.9712 (a.u.) for type    1
     new r_m :   0.2526 (alat units)  1.9712 (a.u.) for type    2
     new r_m :   0.2526 (alat units)  1.9712 (a.u.) for type    3

     Initial potential from superposition of free atoms

     starting charge      63.9976, renormalised to      64.0000
     Starting wfcs are   39 randomized atomic wfcs
     Checking if some PAW data can be deallocated... 

     total cpu time spent up to now is       12.4 secs

     per-process dynamical memory:   220.8 Mb

     Self-consistent Calculation

     iteration #  1     ecut=   100.00 Ry     beta= 0.20
     Davidson diagonalization with overlap
     ethr =  1.00E-02,  avg # of iterations =  4.6

     total cpu time spent up to now is       52.0 secs

     total energy              =   -1523.36845932 Ry
     estimated scf accuracy    <       2.81243270 Ry

     total magnetization       =     8.05 Bohr mag/cell
     absolute magnetization    =     8.55 Bohr mag/cell

     iteration #  2     ecut=   100.00 Ry     beta= 0.20
     Davidson diagonalization with overlap
     ethr =  4.39E-03,  avg # of iterations =  1.8

     negative rho (up, down):  0.000E+00 5.778E-05

     total cpu time spent up to now is       82.0 secs

     total energy              =   -1524.27522200 Ry
     estimated scf accuracy    <       2.00544810 Ry

     total magnetization       =     7.47 Bohr mag/cell
     absolute magnetization    =     8.28 Bohr mag/cell

     iteration #  3     ecut=   100.00 Ry     beta= 0.20
     Davidson diagonalization with overlap
     ethr =  3.13E-03,  avg # of iterations =  1.5

     negative rho (up, down):  0.000E+00 1.495E-04

     total cpu time spent up to now is      110.8 secs

     total energy              =   -1524.53056849 Ry
     estimated scf accuracy    <       2.31840880 Ry

     total magnetization       =     6.88 Bohr mag/cell
     absolute magnetization    =     7.69 Bohr mag/cell

     iteration #  4     ecut=   100.00 Ry     beta= 0.20
     Davidson diagonalization with overlap
     ethr =  3.13E-03,  avg # of iterations =  1.0

     negative rho (up, down):  0.000E+00 1.488E-04

     total cpu time spent up to now is      138.3 secs

     total energy              =   -1524.74406818 Ry
     estimated scf accuracy    <       0.08042195 Ry

     total magnetization       =     5.53 Bohr mag/cell
     absolute magnetization    =     6.40 Bohr mag/cell

     iteration #  5     ecut=   100.00 Ry     beta= 0.20
     Davidson diagonalization with overlap
     ethr =  1.26E-04,  avg # of iterations =  6.0

     negative rho (up, down):  0.000E+00 1.428E-04

     total cpu time spent up to now is      184.3 secs

     total energy              =   -1524.76399867 Ry
     estimated scf accuracy    <       0.02474387 Ry

     total magnetization       =     5.44 Bohr mag/cell
     absolute magnetization    =     6.04 Bohr mag/cell

     iteration #  6     ecut=   100.00 Ry     beta= 0.20
     Davidson diagonalization with overlap
     c_bands:  1 eigenvalues not converged
     ethr =  3.87E-05,  avg # of iterations =  3.5

     negative rho (up, down):  0.000E+00 1.190E-04

     total cpu time spent up to now is      222.3 secs

     total energy              =   -1524.77102382 Ry
     estimated scf accuracy    <       0.00776470 Ry

     total magnetization       =     5.23 Bohr mag/cell
     absolute magnetization    =     5.75 Bohr mag/cell

     iteration #  7     ecut=   100.00 Ry     beta= 0.20
     Davidson diagonalization with overlap
     c_bands:  1 eigenvalues not converged
     c_bands:  1 eigenvalues not converged
     c_bands:  1 eigenvalues not converged
     c_bands:  1 eigenvalues not converged
     ethr =  1.21E-05,  avg # of iterations =  4.7

     negative rho (up, down):  0.000E+00 1.095E-04

     total cpu time spent up to now is      263.7 secs

     total energy              =   -1524.77374270 Ry
     estimated scf accuracy    <       0.02136223 Ry

     total magnetization       =     5.37 Bohr mag/cell
     absolute magnetization    =     5.80 Bohr mag/cell

     iteration #  8     ecut=   100.00 Ry     beta= 0.20
     Davidson diagonalization with overlap
     ethr =  1.21E-05,  avg # of iterations =  1.6

     negative rho (up, down):  0.000E+00 1.024E-04

     total cpu time spent up to now is      292.9 secs

     total energy              =   -1524.77475419 Ry
     estimated scf accuracy    <       0.00336440 Ry

     total magnetization       =     5.28 Bohr mag/cell
     absolute magnetization    =     5.68 Bohr mag/cell

     iteration #  9     ecut=   100.00 Ry     beta= 0.20
     Davidson diagonalization with overlap
     c_bands:  1 eigenvalues not converged
     c_bands:  1 eigenvalues not converged
     ethr =  5.26E-06,  avg # of iterations =  2.9

     negative rho (up, down):  0.000E+00 9.823E-05

     total cpu time spent up to now is      327.2 secs

     total energy              =   -1524.77516442 Ry
     estimated scf accuracy    <       0.00223859 Ry

     total magnetization       =     5.30 Bohr mag/cell
     absolute magnetization    =     5.65 Bohr mag/cell

     iteration # 10     ecut=   100.00 Ry     beta= 0.20
     Davidson diagonalization with overlap
     ethr =  3.50E-06,  avg # of iterations =  2.2

     negative rho (up, down):  0.000E+00 9.917E-05

     total cpu time spent up to now is      358.3 secs

     total energy              =   -1524.77530124 Ry
     estimated scf accuracy    <       0.00038631 Ry

     total magnetization       =     5.30 Bohr mag/cell
     absolute magnetization    =     5.64 Bohr mag/cell

     iteration # 11     ecut=   100.00 Ry     beta= 0.20
     Davidson diagonalization with overlap
     c_bands:  1 eigenvalues not converged
     ethr =  6.04E-07,  avg # of iterations =  4.3

     negative rho (up, down):  0.000E+00 9.744E-05

     total cpu time spent up to now is      397.9 secs

     total energy              =   -1524.77548313 Ry
     estimated scf accuracy    <       0.00161962 Ry

     total magnetization       =     5.31 Bohr mag/cell
     absolute magnetization    =     5.66 Bohr mag/cell

     iteration # 12     ecut=   100.00 Ry     beta= 0.20
     Davidson diagonalization with overlap
     ethr =  6.04E-07,  avg # of iterations =  2.8

     negative rho (up, down):  0.000E+00 9.605E-05

     total cpu time spent up to now is      431.8 secs

     total energy              =   -1524.77566348 Ry
     estimated scf accuracy    <       0.00013116 Ry

     total magnetization       =     5.27 Bohr mag/cell
     absolute magnetization    =     5.59 Bohr mag/cell

     iteration # 13     ecut=   100.00 Ry     beta= 0.20
     Davidson diagonalization with overlap
     c_bands:  1 eigenvalues not converged
     ethr =  2.05E-07,  avg # of iterations =  4.6

     negative rho (up, down):  0.000E+00 9.676E-05

     total cpu time spent up to now is      472.0 secs

     total energy              =   -1524.77568059 Ry
     estimated scf accuracy    <       0.00009724 Ry

     total magnetization       =     5.26 Bohr mag/cell
     absolute magnetization    =     5.57 Bohr mag/cell

     iteration # 14     ecut=   100.00 Ry     beta= 0.20
     Davidson diagonalization with overlap
     ethr =  1.52E-07,  avg # of iterations =  3.6

     negative rho (up, down):  0.000E+00 9.768E-05

     total cpu time spent up to now is      510.6 secs

     total energy              =   -1524.77570270 Ry
     estimated scf accuracy    <       0.00001579 Ry

     total magnetization       =     5.26 Bohr mag/cell
     absolute magnetization    =     5.55 Bohr mag/cell

     iteration # 15     ecut=   100.00 Ry     beta= 0.20
     Davidson diagonalization with overlap
     ethr =  2.47E-08,  avg # of iterations =  5.2

     negative rho (up, down):  0.000E+00 9.782E-05

     total cpu time spent up to now is      555.8 secs

     total energy              =   -1524.77571181 Ry
     estimated scf accuracy    <       0.00001297 Ry

     total magnetization       =     5.27 Bohr mag/cell
     absolute magnetization    =     5.56 Bohr mag/cell

     iteration # 16     ecut=   100.00 Ry     beta= 0.20
     Davidson diagonalization with overlap
     ethr =  2.03E-08,  avg # of iterations =  1.4

     negative rho (up, down):  0.000E+00 9.798E-05

     total cpu time spent up to now is      584.3 secs

     total energy              =   -1524.77571288 Ry
     estimated scf accuracy    <       0.00000189 Ry

     total magnetization       =     5.26 Bohr mag/cell
     absolute magnetization    =     5.56 Bohr mag/cell

     iteration # 17     ecut=   100.00 Ry     beta= 0.20
     Davidson diagonalization with overlap
     ethr =  2.96E-09,  avg # of iterations =  5.3

     negative rho (up, down):  0.000E+00 9.820E-05

     total cpu time spent up to now is      626.8 secs

     total energy              =   -1524.77571314 Ry
     estimated scf accuracy    <       0.00000048 Ry

     total magnetization       =     5.26 Bohr mag/cell
     absolute magnetization    =     5.56 Bohr mag/cell

     iteration # 18     ecut=   100.00 Ry     beta= 0.20
     Davidson diagonalization with overlap
     ethr =  7.53E-10,  avg # of iterations =  5.4

     negative rho (up, down):  0.000E+00 9.830E-05

     total cpu time spent up to now is      675.6 secs

     total energy              =   -1524.77571376 Ry
     estimated scf accuracy    <       0.00000063 Ry

     total magnetization       =     5.26 Bohr mag/cell
     absolute magnetization    =     5.56 Bohr mag/cell

     iteration # 19     ecut=   100.00 Ry     beta= 0.20
     Davidson diagonalization with overlap
     ethr =  7.53E-10,  avg # of iterations =  1.1

     negative rho (up, down):  0.000E+00 9.831E-05

     total cpu time spent up to now is      703.2 secs

     total energy              =   -1524.77571369 Ry
     estimated scf accuracy    <       0.00000040 Ry

     total magnetization       =     5.26 Bohr mag/cell
     absolute magnetization    =     5.56 Bohr mag/cell

     iteration # 20     ecut=   100.00 Ry     beta= 0.20
     Davidson diagonalization with overlap
     ethr =  6.33E-10,  avg # of iterations =  2.0

     negative rho (up, down):  0.000E+00 9.831E-05

     total cpu time spent up to now is      734.6 secs

     total energy              =   -1524.77571375 Ry
     estimated scf accuracy    <       0.00000002 Ry

     total magnetization       =     5.26 Bohr mag/cell
     absolute magnetization    =     5.56 Bohr mag/cell

     iteration # 21     ecut=   100.00 Ry     beta= 0.20
     Davidson diagonalization with overlap
     ethr =  3.02E-11,  avg # of iterations =  6.3

     negative rho (up, down):  0.000E+00 9.829E-05

     total cpu time spent up to now is      791.4 secs

     total energy              =   -1524.77571377 Ry
     estimated scf accuracy    <       0.00000003 Ry

     total magnetization       =     5.26 Bohr mag/cell
     absolute magnetization    =     5.56 Bohr mag/cell

     iteration # 22     ecut=   100.00 Ry     beta= 0.20
     Davidson diagonalization with overlap
     ethr =  3.02E-11,  avg # of iterations =  2.7

     negative rho (up, down):  0.000E+00 9.826E-05
 
     Magnetic moment per site  (integrated on atomic sphere of radius R)
     atom   1 (R=0.253)  charge= 14.4783  magn=  2.7983
     atom   2 (R=0.253)  charge= 11.1691  magn= -0.0098
     atom   3 (R=0.253)  charge= 15.7990  magn=  1.2740
     atom   4 (R=0.253)  charge= 15.7990  magn=  1.2740

     total cpu time spent up to now is      825.1 secs

     End of self-consistent calculation

     Number of k-points >= 100: set verbosity='high' to print the bands.

     the Fermi energy is    19.3613 ev

!    total energy              =   -1524.77571378 Ry
     total all-electron energy =    -20474.056724 Ry
     estimated scf accuracy    <          4.9E-09 Ry
     smearing contrib. (-TS)   =      -0.00950526 Ry
     internal energy E=F+TS    =   -1524.76620852 Ry

     The total energy is F=E-TS. E is the sum of the following terms:
     one-electron contribution =    -441.56306739 Ry
     hartree contribution      =     270.98321365 Ry
     xc contribution           =    -137.83474361 Ry
     ewald contribution        =    -677.45861314 Ry
     one-center paw contrib.   =    -538.89299803 Ry

     total magnetization       =     5.26 Bohr mag/cell
     absolute magnetization    =     5.56 Bohr mag/cell

     convergence has been achieved in  22 iterations

     negative rho (up, down):  0.000E+00 9.826E-05

     Forces acting on atoms (cartesian axes, Ry/au):

     atom    1 type  2   force =     0.00000000    0.00000000    0.00000000
     atom    2 type  3   force =     0.00000000    0.00000000   -0.00000000
     atom    3 type  1   force =     0.00000000    0.00000000   -0.00000044
     atom    4 type  1   force =     0.00000000   -0.00000000    0.00000044

     Total force =     0.000001     Total SCF correction =     0.000004
     SCF correction compared to forces is large: reduce conv_thr to get better values


     Computing stress (Cartesian axis) and pressure


     negative rho (up, down):  0.000E+00 9.826E-05
          total   stress  (Ry/bohr**3)                   (kbar)     P=      147.13
   0.00100017   0.00000000   0.00000000          147.13        0.00        0.00
   0.00000000   0.00100017  -0.00000000            0.00      147.13       -0.00
   0.00000000  -0.00000000   0.00100016            0.00       -0.00      147.13


     Writing all to output data dir ./outdir/Co2FeSn.save/
 
     init_run     :     10.92s CPU     11.70s WALL (       1 calls)
     electrons    :    789.13s CPU    812.74s WALL (       1 calls)
     forces       :      2.41s CPU      2.44s WALL (       1 calls)
     stress       :      5.90s CPU      5.92s WALL (       1 calls)

     Called by init_run:
     wfcinit      :     10.45s CPU     10.94s WALL (       1 calls)
     potinit      :      0.18s CPU      0.26s WALL (       1 calls)
     hinit0       :      0.14s CPU      0.27s WALL (       1 calls)

     Called by electrons:
     c_bands      :    691.07s CPU    710.82s WALL (      22 calls)
     sum_band     :     92.93s CPU     96.67s WALL (      22 calls)
     v_of_rho     :      0.63s CPU      0.67s WALL (      23 calls)
     newd         :      1.35s CPU      1.37s WALL (      23 calls)
     PAW_pot      :      3.20s CPU      3.27s WALL (      23 calls)
     mix_rho      :      0.08s CPU      0.11s WALL (      22 calls)

     Called by c_bands:
     init_us_2    :      6.62s CPU      6.96s WALL (   39198 calls)
     init_us_2:cp :      6.47s CPU      6.86s WALL (   39198 calls)
     cegterg      :    662.77s CPU    681.03s WALL (   18348 calls)

     Called by *egterg:
     cdiaghg      :    138.45s CPU    139.58s WALL (   80533 calls)
     h_psi        :    427.12s CPU    443.70s WALL (   81367 calls)
     s_psi        :     18.24s CPU     18.57s WALL (   81367 calls)
     g_psi        :      2.22s CPU      2.25s WALL (   62185 calls)

     Called by h_psi:
     h_psi:calbec :     24.86s CPU     25.72s WALL (   81367 calls)
     vloc_psi     :    380.04s CPU    395.31s WALL (   81367 calls)
     add_vuspsi   :     19.65s CPU     20.14s WALL (   81367 calls)

     General routines
     calbec       :     34.30s CPU     35.55s WALL (  103885 calls)
     fft          :      0.24s CPU      0.30s WALL (     613 calls)
     ffts         :      0.01s CPU      0.02s WALL (      90 calls)
     fftw         :    417.50s CPU    434.96s WALL ( 4158160 calls)
     interpolate  :      0.03s CPU      0.03s WALL (      46 calls)
 
     Parallel routines
 
     PWSCF        :  13m36.93s CPU  14m 9.10s WALL

 
   This run was terminated on:   1:22:14   9Oct2025            

=------------------------------------------------------------------------------=
   JOB DONE.
=------------------------------------------------------------------------------=
