
     Program PWSCF v.7.1 starts on  9Oct2025 at  0:48: 0 

     This program is part of the open-source Quantum ESPRESSO suite
     for quantum simulation of materials; please cite
         "P. Giannozzi et al., J. Phys.:Condens. Matter 21 395502 (2009);
         "P. Giannozzi et al., J. Phys.:Condens. Matter 29 465901 (2017);
         "P. Giannozzi et al., J. Chem. Phys. 152 154105 (2020);
          URL http://www.quantum-espresso.org", 
     in publications or presentations arising from this work. More details at
     http://www.quantum-espresso.org/quote

     Parallel version (MPI), running on    20 processors

     MPI processes distributed on     1 nodes
     60844 MiB available memory on the printing compute node when the environment starts
 
     Reading input from Co2FeSn_10_kpoints.in

     Current dimensions of program PWSCF are:
     Max number of different atomic species (ntypx) = 10
     Max number of k-points (npk) =  40000
     Max angular momentum in pseudopotentials (lmaxx) =  4
     file Co.pbe-spn-kjpaw_psl.0.3.1.UPF: wavefunction(s)  3P 3D renormalized
     file Fe.pbe-spn-kjpaw_psl.1.0.0.UPF: wavefunction(s)  3P 3D renormalized
     file Sn.pbe-dn-kjpaw_psl.1.0.0.UPF: wavefunction(s)  5S 5P 4D renormalized
 
     R & G space division:  proc/nbgrp/npool/nimage =      20
     Subspace diagonalization in iterative solution of the eigenvalue problem:
     a serial algorithm will be used

 
     Parallelization info
     --------------------
     sticks:   dense  smooth     PW     G-vecs:    dense   smooth      PW
     Min         167      83     24                 6419     2261     355
     Max         168      84     26                 6424     2265     357
     Sum        3355    1663    499               128421    45239    7119
 
     Using Slab Decomposition
 


     bravais-lattice index     =           14
     lattice parameter (alat)  =       7.8036  a.u.
     unit-cell volume          =     336.0264 (a.u.)^3
     number of atoms/cell      =            4
     number of atomic types    =            3
     number of electrons       =        64.00
     number of Kohn-Sham states=           38
     kinetic-energy cutoff     =     100.0000  Ry
     charge density cutoff     =     800.0000  Ry
     scf convergence threshold =      1.0E-08
     mixing beta               =       0.2000
     number of iterations used =            8  plain     mixing
     Exchange-correlation= SLA  PW   PBX  PBC
                           (   1   4   3   4   0   0   0)

     celldm(1)=   7.803620  celldm(2)=   1.000000  celldm(3)=   1.000000
     celldm(4)=   0.500000  celldm(5)=   0.500000  celldm(6)=   0.500000

     crystal axes: (cart. coord. in units of alat)
               a(1) = (   1.000000   0.000000   0.000000 )  
               a(2) = (   0.500000   0.866025   0.000000 )  
               a(3) = (   0.500000   0.288675   0.816497 )  

     reciprocal axes: (cart. coord. in units 2 pi/alat)
               b(1) = (  1.000000 -0.577350 -0.408248 )  
               b(2) = (  0.000000  1.154701 -0.408248 )  
               b(3) = (  0.000000  0.000000  1.224745 )  


     PseudoPot. # 1 for Co read from file:
     <HPC_PATH>
     MD5 check sum: 3c0a43779828c046024e4f3be63f8e67
     Pseudo is Projector augmented-wave + core cor, Zval = 17.0
     Generated using &quot;atomic&quot; code by A. Dal Corso  v.6.2.2
     Shape of augmentation charge: PSQ
     Using radial grid of 1193 points,  6 beta functions with: 
                l(1) =   0
                l(2) =   0
                l(3) =   1
                l(4) =   1
                l(5) =   2
                l(6) =   2
     Q(r) pseudized with 0 coefficients 


     PseudoPot. # 2 for Fe read from file:
     <HPC_PATH>
     MD5 check sum: fc81f059e5c5069939230b1155715ae8
     Pseudo is Projector augmented-wave + core cor, Zval = 16.0
     Generated using &quot;atomic&quot; code by A. Dal Corso  v.6.3
     Shape of augmentation charge: PSQ
     Using radial grid of 1191 points,  6 beta functions with: 
                l(1) =   0
                l(2) =   0
                l(3) =   1
                l(4) =   1
                l(5) =   2
                l(6) =   2
     Q(r) pseudized with 0 coefficients 


     PseudoPot. # 3 for Sn read from file:
     <HPC_PATH>
     MD5 check sum: 67f11dec737d427557dc41ea34975807
     Pseudo is Projector augmented-wave + core cor, Zval = 14.0
     Generated using &quot;atomic&quot; code by A. Dal Corso  v.6.3
     Shape of augmentation charge: PSQ
     Using radial grid of 1243 points,  6 beta functions with: 
                l(1) =   0
                l(2) =   0
                l(3) =   1
                l(4) =   1
                l(5) =   2
                l(6) =   2
     Q(r) pseudized with 0 coefficients 


     atomic species   valence    mass     pseudopotential
        Co            17.00    58.93300     Co( 1.00)
        Fe            16.00    55.84500     Fe( 1.00)
        Sn            14.00   118.71000     Sn( 1.00)

     Starting magnetic structure 
     atomic species   magnetization
        Co           0.500
        Fe           0.500
        Sn           0.000

     12 Sym. Ops., with inversion, found



   Cartesian axes

     site n.     atom                  positions (alat units)
         1           Fe  tau(   1) = (   1.0000000   0.5773503   0.4082483  )
         2           Sn  tau(   2) = (   0.0000000   0.0000000   0.0000000  )
         3           Co  tau(   3) = (   0.5000000   0.2886751   0.2041241  )
         4           Co  tau(   4) = (   1.5000000   0.8660254   0.6123724  )

     number of k points=   116  Gaussian smearing, width (Ry)=  0.0200

     Number of k-points >= 100: set verbosity='high' to print them.

     Dense  grid:   128421 G-vectors     FFT dimensions: (  72,  72,  72)

     Smooth grid:    45239 G-vectors     FFT dimensions: (  50,  50,  50)

     Estimated max dynamical RAM per process >      72.39 MB

     Estimated total dynamical RAM >       1.41 GB

     Check: negative core charge=   -0.000010
     Generating pointlists ...
     new r_m :   0.2526 (alat units)  1.9712 (a.u.) for type    1
     new r_m :   0.2526 (alat units)  1.9712 (a.u.) for type    2
     new r_m :   0.2526 (alat units)  1.9712 (a.u.) for type    3

     Initial potential from superposition of free atoms

     starting charge      63.9976, renormalised to      64.0000
     Starting wfcs are   39 randomized atomic wfcs
     Checking if some PAW data can be deallocated... 

     total cpu time spent up to now is        4.2 secs

     per-process dynamical memory:   113.0 Mb

     Self-consistent Calculation

     iteration #  1     ecut=   100.00 Ry     beta= 0.20
     Davidson diagonalization with overlap
     ethr =  1.00E-02,  avg # of iterations =  4.6

     total cpu time spent up to now is       15.5 secs

     total energy              =   -1523.36618828 Ry
     estimated scf accuracy    <       2.81323759 Ry

     total magnetization       =     8.05 Bohr mag/cell
     absolute magnetization    =     8.55 Bohr mag/cell

     iteration #  2     ecut=   100.00 Ry     beta= 0.20
     Davidson diagonalization with overlap
     ethr =  4.40E-03,  avg # of iterations =  1.8

     negative rho (up, down):  0.000E+00 5.811E-05

     total cpu time spent up to now is       24.1 secs

     total energy              =   -1524.27619515 Ry
     estimated scf accuracy    <       2.00447452 Ry

     total magnetization       =     7.47 Bohr mag/cell
     absolute magnetization    =     8.28 Bohr mag/cell

     iteration #  3     ecut=   100.00 Ry     beta= 0.20
     Davidson diagonalization with overlap
     ethr =  3.13E-03,  avg # of iterations =  1.5

     negative rho (up, down):  0.000E+00 1.496E-04

     total cpu time spent up to now is       32.4 secs

     total energy              =   -1524.53158600 Ry
     estimated scf accuracy    <       2.32355817 Ry

     total magnetization       =     6.85 Bohr mag/cell
     absolute magnetization    =     7.68 Bohr mag/cell

     iteration #  4     ecut=   100.00 Ry     beta= 0.20
     Davidson diagonalization with overlap
     ethr =  3.13E-03,  avg # of iterations =  1.0

     negative rho (up, down):  0.000E+00 1.488E-04

     total cpu time spent up to now is       40.3 secs

     total energy              =   -1524.74427742 Ry
     estimated scf accuracy    <       0.08172387 Ry

     total magnetization       =     5.55 Bohr mag/cell
     absolute magnetization    =     6.41 Bohr mag/cell

     iteration #  5     ecut=   100.00 Ry     beta= 0.20
     Davidson diagonalization with overlap
     ethr =  1.28E-04,  avg # of iterations =  5.9

     negative rho (up, down):  0.000E+00 1.429E-04

     total cpu time spent up to now is       53.1 secs

     total energy              =   -1524.76383203 Ry
     estimated scf accuracy    <       0.02538074 Ry

     total magnetization       =     5.46 Bohr mag/cell
     absolute magnetization    =     6.06 Bohr mag/cell

     iteration #  6     ecut=   100.00 Ry     beta= 0.20
     Davidson diagonalization with overlap
     ethr =  3.97E-05,  avg # of iterations =  3.6

     negative rho (up, down):  0.000E+00 1.190E-04

     total cpu time spent up to now is       63.8 secs

     total energy              =   -1524.77105671 Ry
     estimated scf accuracy    <       0.00778430 Ry

     total magnetization       =     5.25 Bohr mag/cell
     absolute magnetization    =     5.76 Bohr mag/cell

     iteration #  7     ecut=   100.00 Ry     beta= 0.20
     Davidson diagonalization with overlap
     ethr =  1.22E-05,  avg # of iterations =  4.4

     negative rho (up, down):  0.000E+00 1.097E-04

     total cpu time spent up to now is       75.4 secs

     total energy              =   -1524.77372446 Ry
     estimated scf accuracy    <       0.02216851 Ry

     total magnetization       =     5.38 Bohr mag/cell
     absolute magnetization    =     5.81 Bohr mag/cell

     iteration #  8     ecut=   100.00 Ry     beta= 0.20
     Davidson diagonalization with overlap
     ethr =  1.22E-05,  avg # of iterations =  1.6

     negative rho (up, down):  0.000E+00 1.027E-04

     total cpu time spent up to now is       83.8 secs

     total energy              =   -1524.77472938 Ry
     estimated scf accuracy    <       0.00347821 Ry

     total magnetization       =     5.29 Bohr mag/cell
     absolute magnetization    =     5.69 Bohr mag/cell

     iteration #  9     ecut=   100.00 Ry     beta= 0.20
     Davidson diagonalization with overlap
     ethr =  5.43E-06,  avg # of iterations =  2.9

     negative rho (up, down):  0.000E+00 9.871E-05

     total cpu time spent up to now is       93.5 secs

     total energy              =   -1524.77513443 Ry
     estimated scf accuracy    <       0.00204801 Ry

     total magnetization       =     5.32 Bohr mag/cell
     absolute magnetization    =     5.67 Bohr mag/cell

     iteration # 10     ecut=   100.00 Ry     beta= 0.20
     Davidson diagonalization with overlap
     ethr =  3.20E-06,  avg # of iterations =  2.2

     negative rho (up, down):  0.000E+00 9.970E-05

     total cpu time spent up to now is      102.5 secs

     total energy              =   -1524.77523617 Ry
     estimated scf accuracy    <       0.00035493 Ry

     total magnetization       =     5.32 Bohr mag/cell
     absolute magnetization    =     5.65 Bohr mag/cell

     iteration # 11     ecut=   100.00 Ry     beta= 0.20
     Davidson diagonalization with overlap
     c_bands:  1 eigenvalues not converged
     ethr =  5.55E-07,  avg # of iterations =  4.6

     negative rho (up, down):  0.000E+00 9.798E-05

     total cpu time spent up to now is      114.0 secs

     total energy              =   -1524.77543196 Ry
     estimated scf accuracy    <       0.00162284 Ry

     total magnetization       =     5.34 Bohr mag/cell
     absolute magnetization    =     5.67 Bohr mag/cell

     iteration # 12     ecut=   100.00 Ry     beta= 0.20
     Davidson diagonalization with overlap
     c_bands:  1 eigenvalues not converged
     ethr =  5.55E-07,  avg # of iterations =  3.2

     negative rho (up, down):  0.000E+00 9.639E-05

     total cpu time spent up to now is      124.0 secs

     total energy              =   -1524.77561892 Ry
     estimated scf accuracy    <       0.00012453 Ry

     total magnetization       =     5.29 Bohr mag/cell
     absolute magnetization    =     5.61 Bohr mag/cell

     iteration # 13     ecut=   100.00 Ry     beta= 0.20
     Davidson diagonalization with overlap
     ethr =  1.95E-07,  avg # of iterations =  4.6

     negative rho (up, down):  0.000E+00 9.768E-05

     total cpu time spent up to now is      135.5 secs

     total energy              =   -1524.77563928 Ry
     estimated scf accuracy    <       0.00010008 Ry

     total magnetization       =     5.29 Bohr mag/cell
     absolute magnetization    =     5.59 Bohr mag/cell

     iteration # 14     ecut=   100.00 Ry     beta= 0.20
     Davidson diagonalization with overlap
     ethr =  1.56E-07,  avg # of iterations =  3.3

     negative rho (up, down):  0.000E+00 9.826E-05

     total cpu time spent up to now is      145.6 secs

     total energy              =   -1524.77565841 Ry
     estimated scf accuracy    <       0.00000887 Ry

     total magnetization       =     5.28 Bohr mag/cell
     absolute magnetization    =     5.58 Bohr mag/cell

     iteration # 15     ecut=   100.00 Ry     beta= 0.20
     Davidson diagonalization with overlap
     ethr =  1.39E-08,  avg # of iterations =  6.7

     negative rho (up, down):  0.000E+00 9.844E-05

     total cpu time spent up to now is      159.5 secs

     total energy              =   -1524.77566471 Ry
     estimated scf accuracy    <       0.00001002 Ry

     total magnetization       =     5.29 Bohr mag/cell
     absolute magnetization    =     5.58 Bohr mag/cell

     iteration # 16     ecut=   100.00 Ry     beta= 0.20
     Davidson diagonalization with overlap
     ethr =  1.39E-08,  avg # of iterations =  1.4

     negative rho (up, down):  0.000E+00 9.869E-05

     total cpu time spent up to now is      167.7 secs

     total energy              =   -1524.77566492 Ry
     estimated scf accuracy    <       0.00000429 Ry

     total magnetization       =     5.29 Bohr mag/cell
     absolute magnetization    =     5.58 Bohr mag/cell

     iteration # 17     ecut=   100.00 Ry     beta= 0.20
     Davidson diagonalization with overlap
     ethr =  6.70E-09,  avg # of iterations =  2.4

     negative rho (up, down):  0.000E+00 9.877E-05

     total cpu time spent up to now is      176.7 secs

     total energy              =   -1524.77566544 Ry
     estimated scf accuracy    <       0.00000041 Ry

     total magnetization       =     5.28 Bohr mag/cell
     absolute magnetization    =     5.58 Bohr mag/cell

     iteration # 18     ecut=   100.00 Ry     beta= 0.20
     Davidson diagonalization with overlap
     ethr =  6.43E-10,  avg # of iterations =  6.8

     negative rho (up, down):  0.000E+00 9.883E-05

     total cpu time spent up to now is      192.4 secs

     total energy              =   -1524.77566588 Ry
     estimated scf accuracy    <       0.00000003 Ry

     total magnetization       =     5.28 Bohr mag/cell
     absolute magnetization    =     5.58 Bohr mag/cell

     iteration # 19     ecut=   100.00 Ry     beta= 0.20
     Davidson diagonalization with overlap
     ethr =  5.21E-11,  avg # of iterations =  7.4

     negative rho (up, down):  0.000E+00 9.882E-05

     total cpu time spent up to now is      209.3 secs

     total energy              =   -1524.77566592 Ry
     estimated scf accuracy    <       0.00000004 Ry

     total magnetization       =     5.28 Bohr mag/cell
     absolute magnetization    =     5.58 Bohr mag/cell

     iteration # 20     ecut=   100.00 Ry     beta= 0.20
     Davidson diagonalization with overlap
     ethr =  5.21E-11,  avg # of iterations =  2.2

     negative rho (up, down):  0.000E+00 9.882E-05

     total cpu time spent up to now is      218.5 secs

     total energy              =   -1524.77566593 Ry
     estimated scf accuracy    <       0.00000001 Ry

     total magnetization       =     5.28 Bohr mag/cell
     absolute magnetization    =     5.58 Bohr mag/cell

     iteration # 21     ecut=   100.00 Ry     beta= 0.20
     Davidson diagonalization with overlap
     ethr =  2.08E-11,  avg # of iterations =  4.5

     negative rho (up, down):  0.000E+00 9.880E-05

     total cpu time spent up to now is      230.5 secs

     total energy              =   -1524.77566593 Ry
     estimated scf accuracy    <       0.00000003 Ry

     total magnetization       =     5.28 Bohr mag/cell
     absolute magnetization    =     5.58 Bohr mag/cell

     iteration # 22     ecut=   100.00 Ry     beta= 0.20
     Davidson diagonalization with overlap
     ethr =  2.08E-11,  avg # of iterations =  2.8

     negative rho (up, down):  0.000E+00 9.878E-05
 
     Magnetic moment per site  (integrated on atomic sphere of radius R)
     atom   1 (R=0.253)  charge= 14.4777  magn=  2.8036
     atom   2 (R=0.253)  charge= 11.1693  magn= -0.0092
     atom   3 (R=0.253)  charge= 15.7986  magn=  1.2806
     atom   4 (R=0.253)  charge= 15.7986  magn=  1.2806

     total cpu time spent up to now is      240.0 secs

     End of self-consistent calculation

     Number of k-points >= 100: set verbosity='high' to print the bands.

     the Fermi energy is    19.3582 ev

!    total energy              =   -1524.77566594 Ry
     total all-electron energy =    -20474.056677 Ry
     estimated scf accuracy    <          4.0E-09 Ry
     smearing contrib. (-TS)   =      -0.00946479 Ry
     internal energy E=F+TS    =   -1524.76620115 Ry

     The total energy is F=E-TS. E is the sum of the following terms:
     one-electron contribution =    -441.55381138 Ry
     hartree contribution      =     270.97501876 Ry
     xc contribution           =    -137.83551409 Ry
     ewald contribution        =    -677.45861314 Ry
     one-center paw contrib.   =    -538.89328131 Ry

     total magnetization       =     5.28 Bohr mag/cell
     absolute magnetization    =     5.58 Bohr mag/cell

     convergence has been achieved in  22 iterations

     negative rho (up, down):  0.000E+00 9.878E-05

     Forces acting on atoms (cartesian axes, Ry/au):

     atom    1 type  2   force =     0.00000000    0.00000000    0.00000000
     atom    2 type  3   force =     0.00000000    0.00000000   -0.00000000
     atom    3 type  1   force =     0.00000000    0.00000000    0.00000005
     atom    4 type  1   force =     0.00000000    0.00000000   -0.00000005

     Total force =     0.000000     Total SCF correction =     0.000001
     SCF correction compared to forces is large: reduce conv_thr to get better values


     Computing stress (Cartesian axis) and pressure


     negative rho (up, down):  0.000E+00 9.878E-05
          total   stress  (Ry/bohr**3)                   (kbar)     P=      147.89
   0.00100534   0.00000000   0.00000000          147.89        0.00        0.00
   0.00000000   0.00100534   0.00000000            0.00      147.89        0.00
   0.00000000   0.00000000   0.00100533            0.00        0.00      147.89


     Writing all to output data dir ./outdir/Co2FeSn.save/
 
     init_run     :      3.38s CPU      3.67s WALL (       1 calls)
     electrons    :    229.68s CPU    235.85s WALL (       1 calls)
     forces       :      0.81s CPU      0.84s WALL (       1 calls)
     stress       :      1.98s CPU      2.01s WALL (       1 calls)

     Called by init_run:
     wfcinit      :      2.93s CPU      3.05s WALL (       1 calls)
     potinit      :      0.18s CPU      0.25s WALL (       1 calls)
     hinit0       :      0.14s CPU      0.17s WALL (       1 calls)

     Called by electrons:
     c_bands      :    196.85s CPU    201.98s WALL (      22 calls)
     sum_band     :     27.76s CPU     28.71s WALL (      22 calls)
     v_of_rho     :      0.62s CPU      0.66s WALL (      23 calls)
     newd         :      1.33s CPU      1.35s WALL (      23 calls)
     PAW_pot      :      3.17s CPU      3.22s WALL (      23 calls)
     mix_rho      :      0.08s CPU      0.10s WALL (      22 calls)

     Called by c_bands:
     init_us_2    :      1.82s CPU      1.90s WALL (   10904 calls)
     init_us_2:cp :      1.78s CPU      1.87s WALL (   10904 calls)
     cegterg      :    188.90s CPU    193.67s WALL (    5104 calls)

     Called by *egterg:
     cdiaghg      :     40.34s CPU     40.62s WALL (   23479 calls)
     h_psi        :    120.51s CPU    124.81s WALL (   23711 calls)
     s_psi        :      5.10s CPU      5.19s WALL (   23711 calls)
     g_psi        :      0.62s CPU      0.63s WALL (   18375 calls)

     Called by h_psi:
     h_psi:calbec :      7.02s CPU      7.25s WALL (   23711 calls)
     vloc_psi     :    107.28s CPU    111.23s WALL (   23711 calls)
     add_vuspsi   :      5.44s CPU      5.58s WALL (   23711 calls)

     General routines
     calbec       :      9.65s CPU      9.98s WALL (   29975 calls)
     fft          :      0.24s CPU      0.26s WALL (     613 calls)
     ffts         :      0.01s CPU      0.01s WALL (      90 calls)
     fftw         :    117.93s CPU    122.37s WALL ( 1167968 calls)
     interpolate  :      0.03s CPU      0.03s WALL (      46 calls)
 
     Parallel routines
 
     PWSCF        :   3m58.53s CPU   4m 7.71s WALL

 
   This run was terminated on:   0:52: 8   9Oct2025            

=------------------------------------------------------------------------------=
   JOB DONE.
=------------------------------------------------------------------------------=
