
     Program PWSCF v.7.1 starts on  9Oct2025 at  1:40:56 

     This program is part of the open-source Quantum ESPRESSO suite
     for quantum simulation of materials; please cite
         "P. Giannozzi et al., J. Phys.:Condens. Matter 21 395502 (2009);
         "P. Giannozzi et al., J. Phys.:Condens. Matter 29 465901 (2017);
         "P. Giannozzi et al., J. Chem. Phys. 152 154105 (2020);
          URL http://www.quantum-espresso.org", 
     in publications or presentations arising from this work. More details at
     http://www.quantum-espresso.org/quote

     Parallel version (MPI), running on    20 processors

     MPI processes distributed on     1 nodes
     60553 MiB available memory on the printing compute node when the environment starts
 
     Reading input from Co2FeSn_20_kpoints.in

     Current dimensions of program PWSCF are:
     Max number of different atomic species (ntypx) = 10
     Max number of k-points (npk) =  40000
     Max angular momentum in pseudopotentials (lmaxx) =  4
     file Co.pbe-spn-kjpaw_psl.0.3.1.UPF: wavefunction(s)  3P 3D renormalized
     file Fe.pbe-spn-kjpaw_psl.1.0.0.UPF: wavefunction(s)  3P 3D renormalized
     file Sn.pbe-dn-kjpaw_psl.1.0.0.UPF: wavefunction(s)  5S 5P 4D renormalized
 
     R & G space division:  proc/nbgrp/npool/nimage =      20
     Subspace diagonalization in iterative solution of the eigenvalue problem:
     a serial algorithm will be used

 
     Parallelization info
     --------------------
     sticks:   dense  smooth     PW     G-vecs:    dense   smooth      PW
     Min         167      83     24                 6419     2261     355
     Max         168      84     26                 6424     2265     357
     Sum        3355    1663    499               128421    45239    7119
 
     Using Slab Decomposition
 


     bravais-lattice index     =           14
     lattice parameter (alat)  =       7.8036  a.u.
     unit-cell volume          =     336.0264 (a.u.)^3
     number of atoms/cell      =            4
     number of atomic types    =            3
     number of electrons       =        64.00
     number of Kohn-Sham states=           38
     kinetic-energy cutoff     =     100.0000  Ry
     charge density cutoff     =     800.0000  Ry
     scf convergence threshold =      1.0E-08
     mixing beta               =       0.2000
     number of iterations used =            8  plain     mixing
     Exchange-correlation= SLA  PW   PBX  PBC
                           (   1   4   3   4   0   0   0)

     celldm(1)=   7.803620  celldm(2)=   1.000000  celldm(3)=   1.000000
     celldm(4)=   0.500000  celldm(5)=   0.500000  celldm(6)=   0.500000

     crystal axes: (cart. coord. in units of alat)
               a(1) = (   1.000000   0.000000   0.000000 )  
               a(2) = (   0.500000   0.866025   0.000000 )  
               a(3) = (   0.500000   0.288675   0.816497 )  

     reciprocal axes: (cart. coord. in units 2 pi/alat)
               b(1) = (  1.000000 -0.577350 -0.408248 )  
               b(2) = (  0.000000  1.154701 -0.408248 )  
               b(3) = (  0.000000  0.000000  1.224745 )  


     PseudoPot. # 1 for Co read from file:
     <HPC_PATH>
     MD5 check sum: 3c0a43779828c046024e4f3be63f8e67
     Pseudo is Projector augmented-wave + core cor, Zval = 17.0
     Generated using &quot;atomic&quot; code by A. Dal Corso  v.6.2.2
     Shape of augmentation charge: PSQ
     Using radial grid of 1193 points,  6 beta functions with: 
                l(1) =   0
                l(2) =   0
                l(3) =   1
                l(4) =   1
                l(5) =   2
                l(6) =   2
     Q(r) pseudized with 0 coefficients 


     PseudoPot. # 2 for Fe read from file:
     <HPC_PATH>
     MD5 check sum: fc81f059e5c5069939230b1155715ae8
     Pseudo is Projector augmented-wave + core cor, Zval = 16.0
     Generated using &quot;atomic&quot; code by A. Dal Corso  v.6.3
     Shape of augmentation charge: PSQ
     Using radial grid of 1191 points,  6 beta functions with: 
                l(1) =   0
                l(2) =   0
                l(3) =   1
                l(4) =   1
                l(5) =   2
                l(6) =   2
     Q(r) pseudized with 0 coefficients 


     PseudoPot. # 3 for Sn read from file:
     <HPC_PATH>
     MD5 check sum: 67f11dec737d427557dc41ea34975807
     Pseudo is Projector augmented-wave + core cor, Zval = 14.0
     Generated using &quot;atomic&quot; code by A. Dal Corso  v.6.3
     Shape of augmentation charge: PSQ
     Using radial grid of 1243 points,  6 beta functions with: 
                l(1) =   0
                l(2) =   0
                l(3) =   1
                l(4) =   1
                l(5) =   2
                l(6) =   2
     Q(r) pseudized with 0 coefficients 


     atomic species   valence    mass     pseudopotential
        Co            17.00    58.93300     Co( 1.00)
        Fe            16.00    55.84500     Fe( 1.00)
        Sn            14.00   118.71000     Sn( 1.00)

     Starting magnetic structure 
     atomic species   magnetization
        Co           0.500
        Fe           0.500
        Sn           0.000

     12 Sym. Ops., with inversion, found



   Cartesian axes

     site n.     atom                  positions (alat units)
         1           Fe  tau(   1) = (   1.0000000   0.5773503   0.4082483  )
         2           Sn  tau(   2) = (   0.0000000   0.0000000   0.0000000  )
         3           Co  tau(   3) = (   0.5000000   0.2886751   0.2041241  )
         4           Co  tau(   4) = (   1.5000000   0.8660254   0.6123724  )

     number of k points=   781  Gaussian smearing, width (Ry)=  0.0200

     Number of k-points >= 100: set verbosity='high' to print them.

     Dense  grid:   128421 G-vectors     FFT dimensions: (  72,  72,  72)

     Smooth grid:    45239 G-vectors     FFT dimensions: (  50,  50,  50)

     Estimated max dynamical RAM per process >     290.64 MB

     Estimated total dynamical RAM >       5.68 GB

     Check: negative core charge=   -0.000010
     Generating pointlists ...
     new r_m :   0.2526 (alat units)  1.9712 (a.u.) for type    1
     new r_m :   0.2526 (alat units)  1.9712 (a.u.) for type    2
     new r_m :   0.2526 (alat units)  1.9712 (a.u.) for type    3

     Initial potential from superposition of free atoms

     starting charge      63.9976, renormalised to      64.0000
     Starting wfcs are   39 randomized atomic wfcs
     Checking if some PAW data can be deallocated... 

     total cpu time spent up to now is       22.4 secs

     per-process dynamical memory:   349.8 Mb

     Self-consistent Calculation

     iteration #  1     ecut=   100.00 Ry     beta= 0.20
     Davidson diagonalization with overlap
     ethr =  1.00E-02,  avg # of iterations =  4.6

     total cpu time spent up to now is       96.2 secs

     total energy              =   -1523.36874551 Ry
     estimated scf accuracy    <       2.81202418 Ry

     total magnetization       =     8.04 Bohr mag/cell
     absolute magnetization    =     8.55 Bohr mag/cell

     iteration #  2     ecut=   100.00 Ry     beta= 0.20
     Davidson diagonalization with overlap
     ethr =  4.39E-03,  avg # of iterations =  1.8

     negative rho (up, down):  0.000E+00 5.831E-05

     total cpu time spent up to now is      152.0 secs

     total energy              =   -1524.27805255 Ry
     estimated scf accuracy    <       2.00465315 Ry

     total magnetization       =     7.46 Bohr mag/cell
     absolute magnetization    =     8.28 Bohr mag/cell

     iteration #  3     ecut=   100.00 Ry     beta= 0.20
     Davidson diagonalization with overlap
     ethr =  3.13E-03,  avg # of iterations =  1.5

     negative rho (up, down):  0.000E+00 1.495E-04

     total cpu time spent up to now is      205.6 secs

     total energy              =   -1524.53025345 Ry
     estimated scf accuracy    <       2.32446591 Ry

     total magnetization       =     6.87 Bohr mag/cell
     absolute magnetization    =     7.69 Bohr mag/cell

     iteration #  4     ecut=   100.00 Ry     beta= 0.20
     Davidson diagonalization with overlap
     ethr =  3.13E-03,  avg # of iterations =  1.0

     negative rho (up, down):  0.000E+00 1.487E-04

     total cpu time spent up to now is      256.7 secs

     total energy              =   -1524.74386626 Ry
     estimated scf accuracy    <       0.08094141 Ry

     total magnetization       =     5.53 Bohr mag/cell
     absolute magnetization    =     6.41 Bohr mag/cell

     iteration #  5     ecut=   100.00 Ry     beta= 0.20
     Davidson diagonalization with overlap
     c_bands:  1 eigenvalues not converged
     c_bands:  1 eigenvalues not converged
     ethr =  1.26E-04,  avg # of iterations =  5.9

     negative rho (up, down):  0.000E+00 1.429E-04

     total cpu time spent up to now is      342.9 secs

     total energy              =   -1524.76410173 Ry
     estimated scf accuracy    <       0.02423186 Ry

     total magnetization       =     5.44 Bohr mag/cell
     absolute magnetization    =     6.04 Bohr mag/cell

     iteration #  6     ecut=   100.00 Ry     beta= 0.20
     Davidson diagonalization with overlap
     ethr =  3.79E-05,  avg # of iterations =  3.4

     negative rho (up, down):  0.000E+00 1.180E-04

     total cpu time spent up to now is      412.0 secs

     total energy              =   -1524.77127169 Ry
     estimated scf accuracy    <       0.00776267 Ry

     total magnetization       =     5.23 Bohr mag/cell
     absolute magnetization    =     5.75 Bohr mag/cell

     iteration #  7     ecut=   100.00 Ry     beta= 0.20
     Davidson diagonalization with overlap
     c_bands:  1 eigenvalues not converged
     c_bands:  1 eigenvalues not converged
     c_bands:  1 eigenvalues not converged
     c_bands:  1 eigenvalues not converged
     c_bands:  1 eigenvalues not converged
     c_bands:  1 eigenvalues not converged
     c_bands:  1 eigenvalues not converged
     c_bands:  1 eigenvalues not converged
     c_bands:  1 eigenvalues not converged
     c_bands:  1 eigenvalues not converged
     c_bands:  1 eigenvalues not converged
     c_bands:  1 eigenvalues not converged
     c_bands:  1 eigenvalues not converged
     c_bands:  1 eigenvalues not converged
     ethr =  1.21E-05,  avg # of iterations =  4.6

     negative rho (up, down):  0.000E+00 1.094E-04

     total cpu time spent up to now is      488.9 secs

     total energy              =   -1524.77375408 Ry
     estimated scf accuracy    <       0.01959334 Ry

     total magnetization       =     5.36 Bohr mag/cell
     absolute magnetization    =     5.79 Bohr mag/cell

     iteration #  8     ecut=   100.00 Ry     beta= 0.20
     Davidson diagonalization with overlap
     c_bands:  1 eigenvalues not converged
     c_bands:  1 eigenvalues not converged
     ethr =  1.21E-05,  avg # of iterations =  1.6

     negative rho (up, down):  0.000E+00 1.021E-04

     total cpu time spent up to now is      543.2 secs

     total energy              =   -1524.77480018 Ry
     estimated scf accuracy    <       0.00294841 Ry

     total magnetization       =     5.28 Bohr mag/cell
     absolute magnetization    =     5.68 Bohr mag/cell

     iteration #  9     ecut=   100.00 Ry     beta= 0.20
     Davidson diagonalization with overlap
     c_bands:  1 eigenvalues not converged
     c_bands:  1 eigenvalues not converged
     c_bands:  1 eigenvalues not converged
     c_bands:  1 eigenvalues not converged
     c_bands:  1 eigenvalues not converged
     ethr =  4.61E-06,  avg # of iterations =  3.2

     negative rho (up, down):  0.000E+00 9.822E-05

     total cpu time spent up to now is      609.0 secs

     total energy              =   -1524.77519984 Ry
     estimated scf accuracy    <       0.00203715 Ry

     total magnetization       =     5.30 Bohr mag/cell
     absolute magnetization    =     5.65 Bohr mag/cell

     iteration # 10     ecut=   100.00 Ry     beta= 0.20
     Davidson diagonalization with overlap
     c_bands:  1 eigenvalues not converged
     c_bands:  1 eigenvalues not converged
     c_bands:  1 eigenvalues not converged
     c_bands:  1 eigenvalues not converged
     c_bands:  1 eigenvalues not converged
     c_bands:  1 eigenvalues not converged
     c_bands:  1 eigenvalues not converged
     c_bands:  1 eigenvalues not converged
     c_bands:  1 eigenvalues not converged
     ethr =  3.18E-06,  avg # of iterations =  2.3

     negative rho (up, down):  0.000E+00 9.882E-05

     total cpu time spent up to now is      668.3 secs

     total energy              =   -1524.77535354 Ry
     estimated scf accuracy    <       0.00029260 Ry

     total magnetization       =     5.29 Bohr mag/cell
     absolute magnetization    =     5.63 Bohr mag/cell

     iteration # 11     ecut=   100.00 Ry     beta= 0.20
     Davidson diagonalization with overlap
     c_bands:  1 eigenvalues not converged
     c_bands:  1 eigenvalues not converged
     c_bands:  1 eigenvalues not converged
     c_bands:  1 eigenvalues not converged
     c_bands:  1 eigenvalues not converged
     ethr =  4.57E-07,  avg # of iterations =  4.9

     negative rho (up, down):  0.000E+00 9.791E-05

     total cpu time spent up to now is      746.6 secs

     total energy              =   -1524.77553275 Ry
     estimated scf accuracy    <       0.00099388 Ry

     total magnetization       =     5.31 Bohr mag/cell
     absolute magnetization    =     5.64 Bohr mag/cell

     iteration # 12     ecut=   100.00 Ry     beta= 0.20
     Davidson diagonalization with overlap
     c_bands:  1 eigenvalues not converged
     c_bands:  1 eigenvalues not converged
     ethr =  4.57E-07,  avg # of iterations =  2.2

     negative rho (up, down):  0.000E+00 9.610E-05

     total cpu time spent up to now is      805.5 secs

     total energy              =   -1524.77564727 Ry
     estimated scf accuracy    <       0.00014299 Ry

     total magnetization       =     5.27 Bohr mag/cell
     absolute magnetization    =     5.60 Bohr mag/cell

     iteration # 13     ecut=   100.00 Ry     beta= 0.20
     Davidson diagonalization with overlap
     ethr =  2.23E-07,  avg # of iterations =  4.6

     negative rho (up, down):  0.000E+00 9.715E-05

     total cpu time spent up to now is      881.8 secs

     total energy              =   -1524.77568729 Ry
     estimated scf accuracy    <       0.00007783 Ry

     total magnetization       =     5.27 Bohr mag/cell
     absolute magnetization    =     5.57 Bohr mag/cell

     iteration # 14     ecut=   100.00 Ry     beta= 0.20
     Davidson diagonalization with overlap
     c_bands:  1 eigenvalues not converged
     ethr =  1.22E-07,  avg # of iterations =  3.3

     negative rho (up, down):  0.000E+00 9.771E-05

     total cpu time spent up to now is      947.6 secs

     total energy              =   -1524.77570036 Ry
     estimated scf accuracy    <       0.00003227 Ry

     total magnetization       =     5.26 Bohr mag/cell
     absolute magnetization    =     5.56 Bohr mag/cell

     iteration # 15     ecut=   100.00 Ry     beta= 0.20
     Davidson diagonalization with overlap
     ethr =  5.04E-08,  avg # of iterations =  2.6

     negative rho (up, down):  0.000E+00 9.787E-05

     total cpu time spent up to now is     1007.9 secs

     total energy              =   -1524.77570398 Ry
     estimated scf accuracy    <       0.00000842 Ry

     total magnetization       =     5.26 Bohr mag/cell
     absolute magnetization    =     5.56 Bohr mag/cell

     iteration # 16     ecut=   100.00 Ry     beta= 0.20
     Davidson diagonalization with overlap
     ethr =  1.32E-08,  avg # of iterations =  5.8

     negative rho (up, down):  0.000E+00 9.792E-05

     total cpu time spent up to now is     1088.5 secs

     total energy              =   -1524.77570644 Ry
     estimated scf accuracy    <       0.00000479 Ry

     total magnetization       =     5.27 Bohr mag/cell
     absolute magnetization    =     5.56 Bohr mag/cell

     iteration # 17     ecut=   100.00 Ry     beta= 0.20
     Davidson diagonalization with overlap
     ethr =  7.48E-09,  avg # of iterations =  2.3

     negative rho (up, down):  0.000E+00 9.830E-05

     total cpu time spent up to now is     1146.0 secs

     total energy              =   -1524.77570612 Ry
     estimated scf accuracy    <       0.00000270 Ry

     total magnetization       =     5.26 Bohr mag/cell
     absolute magnetization    =     5.56 Bohr mag/cell

     iteration # 18     ecut=   100.00 Ry     beta= 0.20
     Davidson diagonalization with overlap
     ethr =  4.21E-09,  avg # of iterations =  3.7

     negative rho (up, down):  0.000E+00 9.824E-05

     total cpu time spent up to now is     1219.4 secs

     total energy              =   -1524.77570697 Ry
     estimated scf accuracy    <       0.00000085 Ry

     total magnetization       =     5.26 Bohr mag/cell
     absolute magnetization    =     5.56 Bohr mag/cell

     iteration # 19     ecut=   100.00 Ry     beta= 0.20
     Davidson diagonalization with overlap
     ethr =  1.33E-09,  avg # of iterations =  2.7

     negative rho (up, down):  0.000E+00 9.831E-05

     total cpu time spent up to now is     1280.2 secs

     total energy              =   -1524.77570695 Ry
     estimated scf accuracy    <       0.00000024 Ry

     total magnetization       =     5.26 Bohr mag/cell
     absolute magnetization    =     5.56 Bohr mag/cell

     iteration # 20     ecut=   100.00 Ry     beta= 0.20
     Davidson diagonalization with overlap
     ethr =  3.74E-10,  avg # of iterations =  4.2

     negative rho (up, down):  0.000E+00 9.831E-05

     total cpu time spent up to now is     1349.6 secs

     total energy              =   -1524.77570704 Ry
     estimated scf accuracy    <       0.00000009 Ry

     total magnetization       =     5.26 Bohr mag/cell
     absolute magnetization    =     5.56 Bohr mag/cell

     iteration # 21     ecut=   100.00 Ry     beta= 0.20
     Davidson diagonalization with overlap
     ethr =  1.41E-10,  avg # of iterations =  3.1

     negative rho (up, down):  0.000E+00 9.827E-05

     total cpu time spent up to now is     1411.6 secs

     total energy              =   -1524.77570707 Ry
     estimated scf accuracy    <       0.00000011 Ry

     total magnetization       =     5.26 Bohr mag/cell
     absolute magnetization    =     5.56 Bohr mag/cell

     iteration # 22     ecut=   100.00 Ry     beta= 0.20
     Davidson diagonalization with overlap
     ethr =  1.41E-10,  avg # of iterations =  2.1

     negative rho (up, down):  0.000E+00 9.825E-05

     total cpu time spent up to now is     1469.7 secs

     total energy              =   -1524.77570706 Ry
     estimated scf accuracy    <       0.00000006 Ry

     total magnetization       =     5.26 Bohr mag/cell
     absolute magnetization    =     5.56 Bohr mag/cell

     iteration # 23     ecut=   100.00 Ry     beta= 0.20
     Davidson diagonalization with overlap
     c_bands:  1 eigenvalues not converged
     ethr =  9.17E-11,  avg # of iterations =  3.9

     negative rho (up, down):  0.000E+00 9.827E-05

     total cpu time spent up to now is     1550.1 secs

     total energy              =   -1524.77570708 Ry
     estimated scf accuracy    <       0.00000002 Ry

     total magnetization       =     5.26 Bohr mag/cell
     absolute magnetization    =     5.56 Bohr mag/cell

     iteration # 24     ecut=   100.00 Ry     beta= 0.20
     Davidson diagonalization with overlap
     ethr =  3.81E-11,  avg # of iterations =  5.0

     negative rho (up, down):  0.000E+00 9.828E-05
 
     Magnetic moment per site  (integrated on atomic sphere of radius R)
     atom   1 (R=0.253)  charge= 14.4782  magn=  2.7984
     atom   2 (R=0.253)  charge= 11.1691  magn= -0.0097
     atom   3 (R=0.253)  charge= 15.7990  magn=  1.2740
     atom   4 (R=0.253)  charge= 15.7990  magn=  1.2740

     total cpu time spent up to now is     1627.8 secs

     End of self-consistent calculation

     Number of k-points >= 100: set verbosity='high' to print the bands.

     the Fermi energy is    19.3612 ev

!    total energy              =   -1524.77570709 Ry
     total all-electron energy =    -20474.056718 Ry
     estimated scf accuracy    <          7.6E-09 Ry
     smearing contrib. (-TS)   =      -0.00953253 Ry
     internal energy E=F+TS    =   -1524.76617456 Ry

     The total energy is F=E-TS. E is the sum of the following terms:
     one-electron contribution =    -441.56305253 Ry
     hartree contribution      =     270.98328768 Ry
     xc contribution           =    -137.83479510 Ry
     ewald contribution        =    -677.45861314 Ry
     one-center paw contrib.   =    -538.89300148 Ry

     total magnetization       =     5.26 Bohr mag/cell
     absolute magnetization    =     5.56 Bohr mag/cell

     convergence has been achieved in  24 iterations

     negative rho (up, down):  0.000E+00 9.828E-05

     Forces acting on atoms (cartesian axes, Ry/au):

     atom    1 type  2   force =     0.00000000    0.00000000    0.00000000
     atom    2 type  3   force =     0.00000000    0.00000000   -0.00000000
     atom    3 type  1   force =     0.00000000    0.00000000    0.00000036
     atom    4 type  1   force =     0.00000000    0.00000000   -0.00000036

     Total force =     0.000001     Total SCF correction =     0.000003
     SCF correction compared to forces is large: reduce conv_thr to get better values


     Computing stress (Cartesian axis) and pressure


     negative rho (up, down):  0.000E+00 9.828E-05
          total   stress  (Ry/bohr**3)                   (kbar)     P=      147.33
   0.00100152  -0.00000000   0.00000000          147.33       -0.00        0.00
   0.00000000   0.00100152  -0.00000000            0.00      147.33       -0.00
  -0.00000000   0.00000000   0.00100151           -0.00        0.00      147.33


     Writing all to output data dir ./outdir/Co2FeSn.save/
 
     init_run     :     20.70s CPU     21.84s WALL (       1 calls)
     electrons    :   1561.19s CPU   1605.47s WALL (       1 calls)
     forces       :      4.32s CPU      4.38s WALL (       1 calls)
     stress       :     10.68s CPU     10.73s WALL (       1 calls)

     Called by init_run:
     wfcinit      :     20.19s CPU     21.18s WALL (       1 calls)
     potinit      :      0.19s CPU      0.23s WALL (       1 calls)
     hinit0       :      0.14s CPU      0.21s WALL (       1 calls)

     Called by electrons:
     c_bands      :   1367.58s CPU   1404.44s WALL (      24 calls)
     sum_band     :    188.11s CPU    195.39s WALL (      24 calls)
     v_of_rho     :      0.68s CPU      0.70s WALL (      25 calls)
     newd         :      1.44s CPU      1.45s WALL (      25 calls)
     PAW_pot      :      3.44s CPU      3.50s WALL (      25 calls)
     mix_rho      :      0.09s CPU      0.11s WALL (      24 calls)

     Called by c_bands:
     init_us_2    :     13.37s CPU     14.06s WALL (   79662 calls)
     init_us_2:cp :     13.06s CPU     13.84s WALL (   79662 calls)
     cegterg      :   1309.27s CPU   1343.02s WALL (   37488 calls)

     Called by *egterg:
     cdiaghg      :    273.76s CPU    275.96s WALL (  163319 calls)
     h_psi        :    843.97s CPU    874.53s WALL (  164881 calls)
     s_psi        :     35.79s CPU     36.43s WALL (  164881 calls)
     g_psi        :      4.25s CPU      4.29s WALL (  125831 calls)

     Called by h_psi:
     h_psi:calbec :     48.35s CPU     49.93s WALL (  164881 calls)
     vloc_psi     :    752.10s CPU    780.21s WALL (  164881 calls)
     add_vuspsi   :     37.99s CPU     38.92s WALL (  164881 calls)

     General routines
     calbec       :     67.42s CPU     69.71s WALL (  210179 calls)
     fft          :      0.26s CPU      0.30s WALL (     663 calls)
     ffts         :      0.02s CPU      0.02s WALL (      98 calls)
     fftw         :    833.67s CPU    866.20s WALL ( 8246700 calls)
     interpolate  :      0.03s CPU      0.03s WALL (      50 calls)
 
     Parallel routines
 
     PWSCF        :  26m52.28s CPU  28m12.36s WALL

 
   This run was terminated on:   2: 9: 8   9Oct2025            

=------------------------------------------------------------------------------=
   JOB DONE.
=------------------------------------------------------------------------------=
