
     Program PWSCF v.7.1 starts on  9Oct2025 at  0:52:10 

     This program is part of the open-source Quantum ESPRESSO suite
     for quantum simulation of materials; please cite
         "P. Giannozzi et al., J. Phys.:Condens. Matter 21 395502 (2009);
         "P. Giannozzi et al., J. Phys.:Condens. Matter 29 465901 (2017);
         "P. Giannozzi et al., J. Chem. Phys. 152 154105 (2020);
          URL http://www.quantum-espresso.org", 
     in publications or presentations arising from this work. More details at
     http://www.quantum-espresso.org/quote

     Parallel version (MPI), running on    20 processors

     MPI processes distributed on     1 nodes
     60824 MiB available memory on the printing compute node when the environment starts
 
     Reading input from Co2FeSn_12_kpoints.in

     Current dimensions of program PWSCF are:
     Max number of different atomic species (ntypx) = 10
     Max number of k-points (npk) =  40000
     Max angular momentum in pseudopotentials (lmaxx) =  4
     file Co.pbe-spn-kjpaw_psl.0.3.1.UPF: wavefunction(s)  3P 3D renormalized
     file Fe.pbe-spn-kjpaw_psl.1.0.0.UPF: wavefunction(s)  3P 3D renormalized
     file Sn.pbe-dn-kjpaw_psl.1.0.0.UPF: wavefunction(s)  5S 5P 4D renormalized
 
     R & G space division:  proc/nbgrp/npool/nimage =      20
     Subspace diagonalization in iterative solution of the eigenvalue problem:
     a serial algorithm will be used

 
     Parallelization info
     --------------------
     sticks:   dense  smooth     PW     G-vecs:    dense   smooth      PW
     Min         167      83     24                 6419     2261     355
     Max         168      84     26                 6424     2265     357
     Sum        3355    1663    499               128421    45239    7119
 
     Using Slab Decomposition
 


     bravais-lattice index     =           14
     lattice parameter (alat)  =       7.8036  a.u.
     unit-cell volume          =     336.0264 (a.u.)^3
     number of atoms/cell      =            4
     number of atomic types    =            3
     number of electrons       =        64.00
     number of Kohn-Sham states=           38
     kinetic-energy cutoff     =     100.0000  Ry
     charge density cutoff     =     800.0000  Ry
     scf convergence threshold =      1.0E-08
     mixing beta               =       0.2000
     number of iterations used =            8  plain     mixing
     Exchange-correlation= SLA  PW   PBX  PBC
                           (   1   4   3   4   0   0   0)

     celldm(1)=   7.803620  celldm(2)=   1.000000  celldm(3)=   1.000000
     celldm(4)=   0.500000  celldm(5)=   0.500000  celldm(6)=   0.500000

     crystal axes: (cart. coord. in units of alat)
               a(1) = (   1.000000   0.000000   0.000000 )  
               a(2) = (   0.500000   0.866025   0.000000 )  
               a(3) = (   0.500000   0.288675   0.816497 )  

     reciprocal axes: (cart. coord. in units 2 pi/alat)
               b(1) = (  1.000000 -0.577350 -0.408248 )  
               b(2) = (  0.000000  1.154701 -0.408248 )  
               b(3) = (  0.000000  0.000000  1.224745 )  


     PseudoPot. # 1 for Co read from file:
     <HPC_PATH>
     MD5 check sum: 3c0a43779828c046024e4f3be63f8e67
     Pseudo is Projector augmented-wave + core cor, Zval = 17.0
     Generated using &quot;atomic&quot; code by A. Dal Corso  v.6.2.2
     Shape of augmentation charge: PSQ
     Using radial grid of 1193 points,  6 beta functions with: 
                l(1) =   0
                l(2) =   0
                l(3) =   1
                l(4) =   1
                l(5) =   2
                l(6) =   2
     Q(r) pseudized with 0 coefficients 


     PseudoPot. # 2 for Fe read from file:
     <HPC_PATH>
     MD5 check sum: fc81f059e5c5069939230b1155715ae8
     Pseudo is Projector augmented-wave + core cor, Zval = 16.0
     Generated using &quot;atomic&quot; code by A. Dal Corso  v.6.3
     Shape of augmentation charge: PSQ
     Using radial grid of 1191 points,  6 beta functions with: 
                l(1) =   0
                l(2) =   0
                l(3) =   1
                l(4) =   1
                l(5) =   2
                l(6) =   2
     Q(r) pseudized with 0 coefficients 


     PseudoPot. # 3 for Sn read from file:
     <HPC_PATH>
     MD5 check sum: 67f11dec737d427557dc41ea34975807
     Pseudo is Projector augmented-wave + core cor, Zval = 14.0
     Generated using &quot;atomic&quot; code by A. Dal Corso  v.6.3
     Shape of augmentation charge: PSQ
     Using radial grid of 1243 points,  6 beta functions with: 
                l(1) =   0
                l(2) =   0
                l(3) =   1
                l(4) =   1
                l(5) =   2
                l(6) =   2
     Q(r) pseudized with 0 coefficients 


     atomic species   valence    mass     pseudopotential
        Co            17.00    58.93300     Co( 1.00)
        Fe            16.00    55.84500     Fe( 1.00)
        Sn            14.00   118.71000     Sn( 1.00)

     Starting magnetic structure 
     atomic species   magnetization
        Co           0.500
        Fe           0.500
        Sn           0.000

     12 Sym. Ops., with inversion, found



   Cartesian axes

     site n.     atom                  positions (alat units)
         1           Fe  tau(   1) = (   1.0000000   0.5773503   0.4082483  )
         2           Sn  tau(   2) = (   0.0000000   0.0000000   0.0000000  )
         3           Co  tau(   3) = (   0.5000000   0.2886751   0.2041241  )
         4           Co  tau(   4) = (   1.5000000   0.8660254   0.6123724  )

     number of k points=   189  Gaussian smearing, width (Ry)=  0.0200

     Number of k-points >= 100: set verbosity='high' to print them.

     Dense  grid:   128421 G-vectors     FFT dimensions: (  72,  72,  72)

     Smooth grid:    45239 G-vectors     FFT dimensions: (  50,  50,  50)

     Estimated max dynamical RAM per process >      96.35 MB

     Estimated total dynamical RAM >       1.88 GB

     Check: negative core charge=   -0.000010
     Generating pointlists ...
     new r_m :   0.2526 (alat units)  1.9712 (a.u.) for type    1
     new r_m :   0.2526 (alat units)  1.9712 (a.u.) for type    2
     new r_m :   0.2526 (alat units)  1.9712 (a.u.) for type    3

     Initial potential from superposition of free atoms

     starting charge      63.9976, renormalised to      64.0000
     Starting wfcs are   39 randomized atomic wfcs
     Checking if some PAW data can be deallocated... 

     total cpu time spent up to now is        6.4 secs

     per-process dynamical memory:   138.8 Mb

     Self-consistent Calculation

     iteration #  1     ecut=   100.00 Ry     beta= 0.20
     Davidson diagonalization with overlap
     ethr =  1.00E-02,  avg # of iterations =  4.6

     total cpu time spent up to now is       24.6 secs

     total energy              =   -1523.36760432 Ry
     estimated scf accuracy    <       2.81808406 Ry

     total magnetization       =     8.03 Bohr mag/cell
     absolute magnetization    =     8.54 Bohr mag/cell

     iteration #  2     ecut=   100.00 Ry     beta= 0.20
     Davidson diagonalization with overlap
     ethr =  4.40E-03,  avg # of iterations =  1.8

     negative rho (up, down):  0.000E+00 5.968E-05

     total cpu time spent up to now is       38.4 secs

     total energy              =   -1524.28457757 Ry
     estimated scf accuracy    <       2.00067672 Ry

     total magnetization       =     7.48 Bohr mag/cell
     absolute magnetization    =     8.28 Bohr mag/cell

     iteration #  3     ecut=   100.00 Ry     beta= 0.20
     Davidson diagonalization with overlap
     ethr =  3.13E-03,  avg # of iterations =  1.5

     negative rho (up, down):  0.000E+00 1.492E-04

     total cpu time spent up to now is       51.7 secs

     total energy              =   -1524.52990639 Ry
     estimated scf accuracy    <       2.32573509 Ry

     total magnetization       =     6.86 Bohr mag/cell
     absolute magnetization    =     7.68 Bohr mag/cell

     iteration #  4     ecut=   100.00 Ry     beta= 0.20
     Davidson diagonalization with overlap
     ethr =  3.13E-03,  avg # of iterations =  1.0

     negative rho (up, down):  0.000E+00 1.490E-04

     total cpu time spent up to now is       64.3 secs

     total energy              =   -1524.74429870 Ry
     estimated scf accuracy    <       0.08875347 Ry

     total magnetization       =     5.53 Bohr mag/cell
     absolute magnetization    =     6.41 Bohr mag/cell

     iteration #  5     ecut=   100.00 Ry     beta= 0.20
     Davidson diagonalization with overlap
     ethr =  1.39E-04,  avg # of iterations =  5.8

     negative rho (up, down):  0.000E+00 1.428E-04

     total cpu time spent up to now is       84.7 secs

     total energy              =   -1524.76233645 Ry
     estimated scf accuracy    <       0.02968384 Ry

     total magnetization       =     5.44 Bohr mag/cell
     absolute magnetization    =     6.07 Bohr mag/cell

     iteration #  6     ecut=   100.00 Ry     beta= 0.20
     Davidson diagonalization with overlap
     ethr =  4.64E-05,  avg # of iterations =  3.6

     negative rho (up, down):  0.000E+00 1.221E-04

     total cpu time spent up to now is      102.2 secs

     total energy              =   -1524.76989301 Ry
     estimated scf accuracy    <       0.00814787 Ry

     total magnetization       =     5.22 Bohr mag/cell
     absolute magnetization    =     5.74 Bohr mag/cell

     iteration #  7     ecut=   100.00 Ry     beta= 0.20
     Davidson diagonalization with overlap
     c_bands:  1 eigenvalues not converged
     ethr =  1.27E-05,  avg # of iterations =  5.0

     negative rho (up, down):  0.000E+00 1.096E-04

     total cpu time spent up to now is      122.3 secs

     total energy              =   -1524.77374606 Ry
     estimated scf accuracy    <       0.03001758 Ry

     total magnetization       =     5.37 Bohr mag/cell
     absolute magnetization    =     5.82 Bohr mag/cell

     iteration #  8     ecut=   100.00 Ry     beta= 0.20
     Davidson diagonalization with overlap
     ethr =  1.27E-05,  avg # of iterations =  1.7

     negative rho (up, down):  0.000E+00 1.031E-04

     total cpu time spent up to now is      135.8 secs

     total energy              =   -1524.77439283 Ry
     estimated scf accuracy    <       0.00601047 Ry

     total magnetization       =     5.26 Bohr mag/cell
     absolute magnetization    =     5.66 Bohr mag/cell

     iteration #  9     ecut=   100.00 Ry     beta= 0.20
     Davidson diagonalization with overlap
     ethr =  9.39E-06,  avg # of iterations =  2.2

     negative rho (up, down):  0.000E+00 9.807E-05

     total cpu time spent up to now is      150.4 secs

     total energy              =   -1524.77504660 Ry
     estimated scf accuracy    <       0.00251506 Ry

     total magnetization       =     5.30 Bohr mag/cell
     absolute magnetization    =     5.66 Bohr mag/cell

     iteration # 10     ecut=   100.00 Ry     beta= 0.20
     Davidson diagonalization with overlap
     ethr =  3.93E-06,  avg # of iterations =  3.0

     negative rho (up, down):  0.000E+00 9.872E-05

     total cpu time spent up to now is      165.8 secs

     total energy              =   -1524.77539952 Ry
     estimated scf accuracy    <       0.00098371 Ry

     total magnetization       =     5.30 Bohr mag/cell
     absolute magnetization    =     5.64 Bohr mag/cell

     iteration # 11     ecut=   100.00 Ry     beta= 0.20
     Davidson diagonalization with overlap
     c_bands:  1 eigenvalues not converged
     ethr =  1.54E-06,  avg # of iterations =  2.7

     negative rho (up, down):  0.000E+00 9.670E-05

     total cpu time spent up to now is      180.8 secs

     total energy              =   -1524.77547468 Ry
     estimated scf accuracy    <       0.00226087 Ry

     total magnetization       =     5.31 Bohr mag/cell
     absolute magnetization    =     5.65 Bohr mag/cell

     iteration # 12     ecut=   100.00 Ry     beta= 0.20
     Davidson diagonalization with overlap
     c_bands:  1 eigenvalues not converged
     c_bands:  1 eigenvalues not converged
     ethr =  1.54E-06,  avg # of iterations =  2.0

     negative rho (up, down):  0.000E+00 9.598E-05

     total cpu time spent up to now is      194.9 secs

     total energy              =   -1524.77568387 Ry
     estimated scf accuracy    <       0.00035782 Ry

     total magnetization       =     5.25 Bohr mag/cell
     absolute magnetization    =     5.58 Bohr mag/cell

     iteration # 13     ecut=   100.00 Ry     beta= 0.20
     Davidson diagonalization with overlap
     ethr =  5.59E-07,  avg # of iterations =  2.4

     negative rho (up, down):  0.000E+00 9.622E-05

     total cpu time spent up to now is      209.8 secs

     total energy              =   -1524.77563966 Ry
     estimated scf accuracy    <       0.00025524 Ry

     total magnetization       =     5.26 Bohr mag/cell
     absolute magnetization    =     5.57 Bohr mag/cell

     iteration # 14     ecut=   100.00 Ry     beta= 0.20
     Davidson diagonalization with overlap
     c_bands:  1 eigenvalues not converged
     ethr =  3.99E-07,  avg # of iterations =  3.7

     negative rho (up, down):  0.000E+00 9.706E-05

     total cpu time spent up to now is      227.4 secs

     total energy              =   -1524.77570850 Ry
     estimated scf accuracy    <       0.00003422 Ry

     total magnetization       =     5.25 Bohr mag/cell
     absolute magnetization    =     5.54 Bohr mag/cell

     iteration # 15     ecut=   100.00 Ry     beta= 0.20
     Davidson diagonalization with overlap
     c_bands:  1 eigenvalues not converged
     ethr =  5.35E-08,  avg # of iterations =  5.5

     negative rho (up, down):  0.000E+00 9.734E-05

     total cpu time spent up to now is      249.5 secs

     total energy              =   -1524.77572767 Ry
     estimated scf accuracy    <       0.00001775 Ry

     total magnetization       =     5.26 Bohr mag/cell
     absolute magnetization    =     5.56 Bohr mag/cell

     iteration # 16     ecut=   100.00 Ry     beta= 0.20
     Davidson diagonalization with overlap
     ethr =  2.77E-08,  avg # of iterations =  3.6

     negative rho (up, down):  0.000E+00 9.804E-05

     total cpu time spent up to now is      266.4 secs

     total energy              =   -1524.77573376 Ry
     estimated scf accuracy    <       0.00000138 Ry

     total magnetization       =     5.25 Bohr mag/cell
     absolute magnetization    =     5.55 Bohr mag/cell

     iteration # 17     ecut=   100.00 Ry     beta= 0.20
     Davidson diagonalization with overlap
     c_bands:  1 eigenvalues not converged
     ethr =  2.16E-09,  avg # of iterations =  6.4

     negative rho (up, down):  0.000E+00 9.805E-05

     total cpu time spent up to now is      289.9 secs

     total energy              =   -1524.77573497 Ry
     estimated scf accuracy    <       0.00000089 Ry

     total magnetization       =     5.25 Bohr mag/cell
     absolute magnetization    =     5.55 Bohr mag/cell

     iteration # 18     ecut=   100.00 Ry     beta= 0.20
     Davidson diagonalization with overlap
     c_bands:  1 eigenvalues not converged
     ethr =  1.39E-09,  avg # of iterations =  2.1

     negative rho (up, down):  0.000E+00 9.812E-05

     total cpu time spent up to now is      303.8 secs

     total energy              =   -1524.77573510 Ry
     estimated scf accuracy    <       0.00000003 Ry

     total magnetization       =     5.25 Bohr mag/cell
     absolute magnetization    =     5.55 Bohr mag/cell

     iteration # 19     ecut=   100.00 Ry     beta= 0.20
     Davidson diagonalization with overlap
     ethr =  4.75E-11,  avg # of iterations =  8.2

     negative rho (up, down):  0.000E+00 9.811E-05

     total cpu time spent up to now is      333.6 secs

     total energy              =   -1524.77573516 Ry
     estimated scf accuracy    <       0.00000020 Ry

     total magnetization       =     5.25 Bohr mag/cell
     absolute magnetization    =     5.55 Bohr mag/cell

     iteration # 20     ecut=   100.00 Ry     beta= 0.20
     Davidson diagonalization with overlap
     ethr =  4.75E-11,  avg # of iterations =  5.1

     negative rho (up, down):  0.000E+00 9.805E-05
 
     Magnetic moment per site  (integrated on atomic sphere of radius R)
     atom   1 (R=0.253)  charge= 14.4785  magn=  2.7961
     atom   2 (R=0.253)  charge= 11.1690  magn= -0.0100
     atom   3 (R=0.253)  charge= 15.7991  magn=  1.2712
     atom   4 (R=0.253)  charge= 15.7991  magn=  1.2712

     total cpu time spent up to now is      355.5 secs

     End of self-consistent calculation

     Number of k-points >= 100: set verbosity='high' to print the bands.

     the Fermi energy is    19.3625 ev

!    total energy              =   -1524.77573522 Ry
     total all-electron energy =    -20474.056746 Ry
     estimated scf accuracy    <          7.4E-09 Ry
     smearing contrib. (-TS)   =      -0.00952796 Ry
     internal energy E=F+TS    =   -1524.76620726 Ry

     The total energy is F=E-TS. E is the sum of the following terms:
     one-electron contribution =    -441.56713456 Ry
     hartree contribution      =     270.98687781 Ry
     xc contribution           =    -137.83446338 Ry
     ewald contribution        =    -677.45861314 Ry
     one-center paw contrib.   =    -538.89287399 Ry

     total magnetization       =     5.25 Bohr mag/cell
     absolute magnetization    =     5.55 Bohr mag/cell

     convergence has been achieved in  20 iterations

     negative rho (up, down):  0.000E+00 9.805E-05

     Forces acting on atoms (cartesian axes, Ry/au):

     atom    1 type  2   force =     0.00000000    0.00000000    0.00000000
     atom    2 type  3   force =     0.00000000    0.00000000   -0.00000000
     atom    3 type  1   force =     0.00000000    0.00000000   -0.00000100
     atom    4 type  1   force =     0.00000000    0.00000000    0.00000100

     Total force =     0.000001     Total SCF correction =     0.000011
     SCF correction compared to forces is large: reduce conv_thr to get better values


     Computing stress (Cartesian axis) and pressure


     negative rho (up, down):  0.000E+00 9.805E-05
          total   stress  (Ry/bohr**3)                   (kbar)     P=      147.01
   0.00099937   0.00000000   0.00000000          147.01        0.00        0.00
   0.00000000   0.00099937   0.00000000            0.00      147.01        0.00
   0.00000000  -0.00000000   0.00099935            0.00       -0.00      147.01


     Writing all to output data dir ./outdir/Co2FeSn.save/
 
     init_run     :      5.18s CPU      5.77s WALL (       1 calls)
     electrons    :    339.52s CPU    349.16s WALL (       1 calls)
     forces       :      1.19s CPU      1.23s WALL (       1 calls)
     stress       :      2.90s CPU      2.94s WALL (       1 calls)

     Called by init_run:
     wfcinit      :      4.71s CPU      5.01s WALL (       1 calls)
     potinit      :      0.19s CPU      0.27s WALL (       1 calls)
     hinit0       :      0.14s CPU      0.26s WALL (       1 calls)

     Called by electrons:
     c_bands      :    294.62s CPU    302.66s WALL (      20 calls)
     sum_band     :     40.28s CPU     41.75s WALL (      20 calls)
     v_of_rho     :      0.57s CPU      0.61s WALL (      21 calls)
     newd         :      1.22s CPU      1.24s WALL (      21 calls)
     PAW_pot      :      2.90s CPU      2.95s WALL (      21 calls)
     mix_rho      :      0.08s CPU      0.09s WALL (      20 calls)

     Called by c_bands:
     init_us_2    :      2.71s CPU      2.83s WALL (   16254 calls)
     init_us_2:cp :      2.64s CPU      2.78s WALL (   16254 calls)
     cegterg      :    282.99s CPU    290.48s WALL (    7560 calls)

     Called by *egterg:
     cdiaghg      :     60.01s CPU     60.53s WALL (   34759 calls)
     h_psi        :    180.68s CPU    187.50s WALL (   35137 calls)
     s_psi        :      7.70s CPU      7.85s WALL (   35137 calls)
     g_psi        :      0.95s CPU      0.96s WALL (   27199 calls)

     Called by h_psi:
     h_psi:calbec :     10.36s CPU     10.72s WALL (   35137 calls)
     vloc_psi     :    161.02s CPU    167.28s WALL (   35137 calls)
     add_vuspsi   :      8.19s CPU      8.41s WALL (   35137 calls)

     General routines
     calbec       :     14.41s CPU     14.93s WALL (   44587 calls)
     fft          :      0.23s CPU      0.28s WALL (     563 calls)
     ffts         :      0.01s CPU      0.02s WALL (      82 calls)
     fftw         :    176.86s CPU    183.95s WALL ( 1757466 calls)
     interpolate  :      0.03s CPU      0.03s WALL (      42 calls)
 
     Parallel routines
 
     PWSCF        :   5m52.94s CPU   6m 7.16s WALL

 
   This run was terminated on:   0:58:17   9Oct2025            

=------------------------------------------------------------------------------=
   JOB DONE.
=------------------------------------------------------------------------------=
