
     Program PWSCF v.7.1 starts on  8Oct2025 at 23:23:26 

     This program is part of the open-source Quantum ESPRESSO suite
     for quantum simulation of materials; please cite
         "P. Giannozzi et al., J. Phys.:Condens. Matter 21 395502 (2009);
         "P. Giannozzi et al., J. Phys.:Condens. Matter 29 465901 (2017);
         "P. Giannozzi et al., J. Chem. Phys. 152 154105 (2020);
          URL http://www.quantum-espresso.org", 
     in publications or presentations arising from this work. More details at
     http://www.quantum-espresso.org/quote

     Parallel version (MPI), running on    20 processors

     MPI processes distributed on     1 nodes
     60739 MiB available memory on the printing compute node when the environment starts
 
     Reading input from Co2FeSn_60.in

     Current dimensions of program PWSCF are:
     Max number of different atomic species (ntypx) = 10
     Max number of k-points (npk) =  40000
     Max angular momentum in pseudopotentials (lmaxx) =  4
     file Co.pbe-spn-kjpaw_psl.0.3.1.UPF: wavefunction(s)  3P 3D renormalized
     file Fe.pbe-spn-kjpaw_psl.1.0.0.UPF: wavefunction(s)  3P 3D renormalized
     file Sn.pbe-dn-kjpaw_psl.1.0.0.UPF: wavefunction(s)  5S 5P 4D renormalized
 
     R & G space division:  proc/nbgrp/npool/nimage =      20
     Subspace diagonalization in iterative solution of the eigenvalue problem:
     a serial algorithm will be used

 
     Parallelization info
     --------------------
     sticks:   dense  smooth     PW     G-vecs:    dense   smooth      PW
     Min         100      50     15                 2982     1058     173
     Max         101      51     16                 2985     1062     176
     Sum        2017    1015    301                59679    21187    3479
 
     Using Slab Decomposition
 


     bravais-lattice index     =           14
     lattice parameter (alat)  =       7.8036  a.u.
     unit-cell volume          =     336.0264 (a.u.)^3
     number of atoms/cell      =            4
     number of atomic types    =            3
     number of electrons       =        64.00
     number of Kohn-Sham states=           38
     kinetic-energy cutoff     =      60.0000  Ry
     charge density cutoff     =     480.0000  Ry
     scf convergence threshold =      1.0E-08
     mixing beta               =       0.2000
     number of iterations used =            8  plain     mixing
     Exchange-correlation= SLA  PW   PBX  PBC
                           (   1   4   3   4   0   0   0)

     celldm(1)=   7.803620  celldm(2)=   1.000000  celldm(3)=   1.000000
     celldm(4)=   0.500000  celldm(5)=   0.500000  celldm(6)=   0.500000

     crystal axes: (cart. coord. in units of alat)
               a(1) = (   1.000000   0.000000   0.000000 )  
               a(2) = (   0.500000   0.866025   0.000000 )  
               a(3) = (   0.500000   0.288675   0.816497 )  

     reciprocal axes: (cart. coord. in units 2 pi/alat)
               b(1) = (  1.000000 -0.577350 -0.408248 )  
               b(2) = (  0.000000  1.154701 -0.408248 )  
               b(3) = (  0.000000  0.000000  1.224745 )  


     PseudoPot. # 1 for Co read from file:
     <HPC_PATH>
     MD5 check sum: 3c0a43779828c046024e4f3be63f8e67
     Pseudo is Projector augmented-wave + core cor, Zval = 17.0
     Generated using &quot;atomic&quot; code by A. Dal Corso  v.6.2.2
     Shape of augmentation charge: PSQ
     Using radial grid of 1193 points,  6 beta functions with: 
                l(1) =   0
                l(2) =   0
                l(3) =   1
                l(4) =   1
                l(5) =   2
                l(6) =   2
     Q(r) pseudized with 0 coefficients 


     PseudoPot. # 2 for Fe read from file:
     <HPC_PATH>
     MD5 check sum: fc81f059e5c5069939230b1155715ae8
     Pseudo is Projector augmented-wave + core cor, Zval = 16.0
     Generated using &quot;atomic&quot; code by A. Dal Corso  v.6.3
     Shape of augmentation charge: PSQ
     Using radial grid of 1191 points,  6 beta functions with: 
                l(1) =   0
                l(2) =   0
                l(3) =   1
                l(4) =   1
                l(5) =   2
                l(6) =   2
     Q(r) pseudized with 0 coefficients 


     PseudoPot. # 3 for Sn read from file:
     <HPC_PATH>
     MD5 check sum: 67f11dec737d427557dc41ea34975807
     Pseudo is Projector augmented-wave + core cor, Zval = 14.0
     Generated using &quot;atomic&quot; code by A. Dal Corso  v.6.3
     Shape of augmentation charge: PSQ
     Using radial grid of 1243 points,  6 beta functions with: 
                l(1) =   0
                l(2) =   0
                l(3) =   1
                l(4) =   1
                l(5) =   2
                l(6) =   2
     Q(r) pseudized with 0 coefficients 


     atomic species   valence    mass     pseudopotential
        Co            17.00    58.93300     Co( 1.00)
        Fe            16.00    55.84500     Fe( 1.00)
        Sn            14.00   118.71000     Sn( 1.00)

     Starting magnetic structure 
     atomic species   magnetization
        Co           0.500
        Fe           0.500
        Sn           0.000

     12 Sym. Ops., with inversion, found



   Cartesian axes

     site n.     atom                  positions (alat units)
         1           Fe  tau(   1) = (   1.0000000   0.5773503   0.4082483  )
         2           Sn  tau(   2) = (   0.0000000   0.0000000   0.0000000  )
         3           Co  tau(   3) = (   0.5000000   0.2886751   0.2041241  )
         4           Co  tau(   4) = (   1.5000000   0.8660254   0.6123724  )

     number of k points=    32  Gaussian smearing, width (Ry)=  0.0200
                       cart. coord. in units 2pi/alat
        k(    1) = (   0.0000000   0.0000000   0.0000000), wk =   0.0046296
        k(    2) = (   0.0000000   0.0000000   0.2041241), wk =   0.0092593
        k(    3) = (   0.0000000   0.0000000   0.4082483), wk =   0.0092593
        k(    4) = (   0.0000000   0.0000000  -0.6123724), wk =   0.0046296
        k(    5) = (   0.0000000   0.1924501  -0.0680414), wk =   0.0277778
        k(    6) = (   0.0000000   0.1924501   0.1360828), wk =   0.0277778
        k(    7) = (   0.0000000   0.1924501   0.3402069), wk =   0.0277778
        k(    8) = (   0.0000000   0.1924501  -0.6804138), wk =   0.0277778
        k(    9) = (   0.0000000   0.1924501  -0.4762897), wk =   0.0277778
        k(   10) = (   0.0000000   0.1924501  -0.2721655), wk =   0.0277778
        k(   11) = (   0.0000000   0.3849002  -0.1360828), wk =   0.0277778
        k(   12) = (   0.0000000   0.3849002   0.0680414), wk =   0.0277778
        k(   13) = (   0.0000000   0.3849002   0.2721655), wk =   0.0277778
        k(   14) = (   0.0000000   0.3849002  -0.7484552), wk =   0.0277778
        k(   15) = (   0.0000000   0.3849002  -0.5443311), wk =   0.0277778
        k(   16) = (   0.0000000   0.3849002  -0.3402069), wk =   0.0277778
        k(   17) = (   0.0000000  -0.5773503   0.2041241), wk =   0.0138889
        k(   18) = (   0.0000000  -0.5773503   0.4082483), wk =   0.0277778
        k(   19) = (   0.0000000  -0.5773503   0.6123724), wk =   0.0277778
        k(   20) = (   0.0000000  -0.5773503  -0.4082483), wk =   0.0138889
        k(   21) = (   0.1666667   0.2886751  -0.2041241), wk =   0.0555556
        k(   22) = (   0.1666667   0.2886751  -0.0000000), wk =   0.0277778
        k(   23) = (   0.1666667   0.2886751  -0.8164966), wk =   0.0555556
        k(   24) = (   0.1666667   0.2886751  -0.6123724), wk =   0.0277778
        k(   25) = (   0.1666667  -0.6735753   0.1360828), wk =   0.0555556
        k(   26) = (   0.1666667  -0.6735753   0.3402069), wk =   0.0555556
        k(   27) = (   0.1666667  -0.6735753   0.5443311), wk =   0.0555556
        k(   28) = (   0.1666667  -0.6735753  -0.4762897), wk =   0.0555556
        k(   29) = (   0.1666667  -0.6735753  -0.2721655), wk =   0.0555556
        k(   30) = (   0.1666667  -0.6735753  -0.0680414), wk =   0.0555556
        k(   31) = (   0.3333333  -0.5773503   0.0000000), wk =   0.0277778
        k(   32) = (   0.3333333  -0.5773503   0.2041241), wk =   0.0277778

     Dense  grid:    59679 G-vectors     FFT dimensions: (  60,  60,  60)

     Smooth grid:    21187 G-vectors     FFT dimensions: (  40,  40,  40)

     Estimated max dynamical RAM per process >      23.05 MB

     Estimated total dynamical RAM >     461.01 MB

     Check: negative core charge=   -0.000011
     Generating pointlists ...
     new r_m :   0.2526 (alat units)  1.9712 (a.u.) for type    1
     new r_m :   0.2526 (alat units)  1.9712 (a.u.) for type    2
     new r_m :   0.2526 (alat units)  1.9712 (a.u.) for type    3

     Initial potential from superposition of free atoms

     starting charge      63.9976, renormalised to      64.0000
     Starting wfcs are   39 randomized atomic wfcs
     Checking if some PAW data can be deallocated... 

     total cpu time spent up to now is        1.7 secs

     per-process dynamical memory:    76.1 Mb

     Self-consistent Calculation

     iteration #  1     ecut=    60.00 Ry     beta= 0.20
     Davidson diagonalization with overlap
     ethr =  1.00E-02,  avg # of iterations =  3.6

     total cpu time spent up to now is        3.7 secs

     total energy              =   -1523.37645885 Ry
     estimated scf accuracy    <       2.76070053 Ry

     total magnetization       =     8.00 Bohr mag/cell
     absolute magnetization    =     8.79 Bohr mag/cell

     iteration #  2     ecut=    60.00 Ry     beta= 0.20
     Davidson diagonalization with overlap
     ethr =  4.31E-03,  avg # of iterations =  1.1

     negative rho (up, down):  0.000E+00 6.491E-05

     total cpu time spent up to now is        5.2 secs

     total energy              =   -1524.14154406 Ry
     estimated scf accuracy    <       2.02382917 Ry

     total magnetization       =     7.45 Bohr mag/cell
     absolute magnetization    =     8.35 Bohr mag/cell

     iteration #  3     ecut=    60.00 Ry     beta= 0.20
     Davidson diagonalization with overlap
     ethr =  3.16E-03,  avg # of iterations =  1.2

     negative rho (up, down):  0.000E+00 2.409E-04

     total cpu time spent up to now is        6.7 secs

     total energy              =   -1524.50323105 Ry
     estimated scf accuracy    <       1.95361930 Ry

     total magnetization       =     7.08 Bohr mag/cell
     absolute magnetization    =     7.90 Bohr mag/cell

     iteration #  4     ecut=    60.00 Ry     beta= 0.20
     Davidson diagonalization with overlap
     ethr =  3.05E-03,  avg # of iterations =  1.1

     negative rho (up, down):  0.000E+00 2.403E-04

     total cpu time spent up to now is        8.2 secs

     total energy              =   -1524.69667197 Ry
     estimated scf accuracy    <       0.07868423 Ry

     total magnetization       =     5.63 Bohr mag/cell
     absolute magnetization    =     6.51 Bohr mag/cell

     iteration #  5     ecut=    60.00 Ry     beta= 0.20
     Davidson diagonalization with overlap
     ethr =  1.23E-04,  avg # of iterations =  5.7

     negative rho (up, down):  0.000E+00 2.188E-04

     total cpu time spent up to now is       10.7 secs

     total energy              =   -1524.71786292 Ry
     estimated scf accuracy    <       0.01783813 Ry

     total magnetization       =     5.44 Bohr mag/cell
     absolute magnetization    =     6.02 Bohr mag/cell

     iteration #  6     ecut=    60.00 Ry     beta= 0.20
     Davidson diagonalization with overlap
     ethr =  2.79E-05,  avg # of iterations =  4.6

     negative rho (up, down):  0.000E+00 1.763E-04

     total cpu time spent up to now is       12.9 secs

     total energy              =   -1524.72604399 Ry
     estimated scf accuracy    <       0.01492126 Ry

     total magnetization       =     5.19 Bohr mag/cell
     absolute magnetization    =     5.67 Bohr mag/cell

     iteration #  7     ecut=    60.00 Ry     beta= 0.20
     Davidson diagonalization with overlap
     ethr =  2.33E-05,  avg # of iterations =  1.8

     negative rho (up, down):  0.000E+00 1.575E-04

     total cpu time spent up to now is       14.4 secs

     total energy              =   -1524.72900128 Ry
     estimated scf accuracy    <       0.00256614 Ry

     total magnetization       =     5.36 Bohr mag/cell
     absolute magnetization    =     5.78 Bohr mag/cell

     iteration #  8     ecut=    60.00 Ry     beta= 0.20
     Davidson diagonalization with overlap
     ethr =  4.01E-06,  avg # of iterations =  4.8

     negative rho (up, down):  0.000E+00 1.425E-04

     total cpu time spent up to now is       16.6 secs

     total energy              =   -1524.72944156 Ry
     estimated scf accuracy    <       0.00300469 Ry

     total magnetization       =     5.37 Bohr mag/cell
     absolute magnetization    =     5.75 Bohr mag/cell

     iteration #  9     ecut=    60.00 Ry     beta= 0.20
     Davidson diagonalization with overlap
     ethr =  4.01E-06,  avg # of iterations =  2.6

     negative rho (up, down):  0.000E+00 1.460E-04

     total cpu time spent up to now is       18.3 secs

     total energy              =   -1524.73009626 Ry
     estimated scf accuracy    <       0.00042446 Ry

     total magnetization       =     5.32 Bohr mag/cell
     absolute magnetization    =     5.64 Bohr mag/cell

     iteration # 10     ecut=    60.00 Ry     beta= 0.20
     Davidson diagonalization with overlap
     ethr =  6.63E-07,  avg # of iterations =  4.5

     negative rho (up, down):  0.000E+00 1.422E-04

     total cpu time spent up to now is       20.5 secs

     total energy              =   -1524.73028132 Ry
     estimated scf accuracy    <       0.00015857 Ry

     total magnetization       =     5.34 Bohr mag/cell
     absolute magnetization    =     5.66 Bohr mag/cell

     iteration # 11     ecut=    60.00 Ry     beta= 0.20
     Davidson diagonalization with overlap
     ethr =  2.48E-07,  avg # of iterations =  4.7

     negative rho (up, down):  0.000E+00 1.440E-04

     total cpu time spent up to now is       22.9 secs

     total energy              =   -1524.73036981 Ry
     estimated scf accuracy    <       0.00017647 Ry

     total magnetization       =     5.32 Bohr mag/cell
     absolute magnetization    =     5.61 Bohr mag/cell

     iteration # 12     ecut=    60.00 Ry     beta= 0.20
     Davidson diagonalization with overlap
     ethr =  2.48E-07,  avg # of iterations =  1.8

     negative rho (up, down):  0.000E+00 1.443E-04

     total cpu time spent up to now is       24.4 secs

     total energy              =   -1524.73038463 Ry
     estimated scf accuracy    <       0.00000660 Ry

     total magnetization       =     5.33 Bohr mag/cell
     absolute magnetization    =     5.61 Bohr mag/cell

     iteration # 13     ecut=    60.00 Ry     beta= 0.20
     Davidson diagonalization with overlap
     ethr =  1.03E-08,  avg # of iterations =  6.8

     negative rho (up, down):  0.000E+00 1.448E-04

     total cpu time spent up to now is       27.1 secs

     total energy              =   -1524.73038672 Ry
     estimated scf accuracy    <       0.00000415 Ry

     total magnetization       =     5.33 Bohr mag/cell
     absolute magnetization    =     5.61 Bohr mag/cell

     iteration # 14     ecut=    60.00 Ry     beta= 0.20
     Davidson diagonalization with overlap
     ethr =  6.48E-09,  avg # of iterations =  4.3

     negative rho (up, down):  0.000E+00 1.452E-04

     total cpu time spent up to now is       29.4 secs

     total energy              =   -1524.73038931 Ry
     estimated scf accuracy    <       0.00000611 Ry

     total magnetization       =     5.33 Bohr mag/cell
     absolute magnetization    =     5.61 Bohr mag/cell

     iteration # 15     ecut=    60.00 Ry     beta= 0.20
     Davidson diagonalization with overlap
     ethr =  6.48E-09,  avg # of iterations =  1.0

     negative rho (up, down):  0.000E+00 1.468E-04

     total cpu time spent up to now is       30.9 secs

     total energy              =   -1524.73038847 Ry
     estimated scf accuracy    <       0.00000536 Ry

     total magnetization       =     5.33 Bohr mag/cell
     absolute magnetization    =     5.61 Bohr mag/cell

     iteration # 16     ecut=    60.00 Ry     beta= 0.20
     Davidson diagonalization with overlap
     ethr =  6.48E-09,  avg # of iterations =  2.5

     negative rho (up, down):  0.000E+00 1.468E-04

     total cpu time spent up to now is       32.6 secs

     total energy              =   -1524.73038927 Ry
     estimated scf accuracy    <       0.00000016 Ry

     total magnetization       =     5.33 Bohr mag/cell
     absolute magnetization    =     5.61 Bohr mag/cell

     iteration # 17     ecut=    60.00 Ry     beta= 0.20
     Davidson diagonalization with overlap
     ethr =  2.53E-10,  avg # of iterations =  5.3

     negative rho (up, down):  0.000E+00 1.469E-04

     total cpu time spent up to now is       35.2 secs

     total energy              =   -1524.73038941 Ry
     estimated scf accuracy    <       0.00000004 Ry

     total magnetization       =     5.33 Bohr mag/cell
     absolute magnetization    =     5.61 Bohr mag/cell

     iteration # 18     ecut=    60.00 Ry     beta= 0.20
     Davidson diagonalization with overlap
     ethr =  5.90E-11,  avg # of iterations =  3.3

     negative rho (up, down):  0.000E+00 1.470E-04

     total cpu time spent up to now is       37.0 secs

     total energy              =   -1524.73038944 Ry
     estimated scf accuracy    <       0.00000002 Ry

     total magnetization       =     5.33 Bohr mag/cell
     absolute magnetization    =     5.61 Bohr mag/cell

     iteration # 19     ecut=    60.00 Ry     beta= 0.20
     Davidson diagonalization with overlap
     ethr =  3.13E-11,  avg # of iterations =  4.4

     negative rho (up, down):  0.000E+00 1.470E-04

     total cpu time spent up to now is       39.3 secs

     total energy              =   -1524.73038947 Ry
     estimated scf accuracy    <       0.00000001 Ry

     total magnetization       =     5.33 Bohr mag/cell
     absolute magnetization    =     5.61 Bohr mag/cell

     iteration # 20     ecut=    60.00 Ry     beta= 0.20
     Davidson diagonalization with overlap
     ethr =  1.71E-11,  avg # of iterations =  3.9

     negative rho (up, down):  0.000E+00 1.470E-04

     total cpu time spent up to now is       41.5 secs

     total energy              =   -1524.73038949 Ry
     estimated scf accuracy    <       0.00000001 Ry

     total magnetization       =     5.33 Bohr mag/cell
     absolute magnetization    =     5.61 Bohr mag/cell

     iteration # 21     ecut=    60.00 Ry     beta= 0.20
     Davidson diagonalization with overlap
     ethr =  1.71E-11,  avg # of iterations =  1.0

     negative rho (up, down):  0.000E+00 1.470E-04

     total cpu time spent up to now is       42.9 secs

     total energy              =   -1524.73038949 Ry
     estimated scf accuracy    <       0.00000002 Ry

     total magnetization       =     5.33 Bohr mag/cell
     absolute magnetization    =     5.61 Bohr mag/cell

     iteration # 22     ecut=    60.00 Ry     beta= 0.20
     Davidson diagonalization with overlap
     ethr =  1.71E-11,  avg # of iterations =  1.0

     negative rho (up, down):  0.000E+00 1.470E-04
 
     Magnetic moment per site  (integrated on atomic sphere of radius R)
     atom   1 (R=0.253)  charge= 14.4760  magn=  2.8193
     atom   2 (R=0.253)  charge= 11.1690  magn= -0.0081
     atom   3 (R=0.253)  charge= 15.8033  magn=  1.2925
     atom   4 (R=0.253)  charge= 15.8033  magn=  1.2925

     total cpu time spent up to now is       44.4 secs

     End of self-consistent calculation

 ------ SPIN UP ------------


          k = 0.0000 0.0000 0.0000 (  2685 PWs)   bands (ev):

   -76.5655 -76.5593 -69.9040 -39.8569 -39.8569 -39.8569 -39.8326 -39.8326
   -39.8326 -35.9438 -35.9438 -35.9438  -2.2846  -2.2846  -2.2846  -2.2252
    -2.2252   7.3717  14.7395  14.7395  14.9303  14.9303  14.9303  15.6456
    15.6456  15.6456  17.2138  17.2138  17.7713  17.7713  17.8362  17.8362
    17.8362  22.9791  23.2569  23.2569  23.2569  24.2693

          k = 0.0000 0.0000 0.2041 (  2659 PWs)   bands (ev):

   -76.5651 -76.5597 -69.9039 -39.8557 -39.8555 -39.8555 -39.8341 -39.8341
   -39.8337 -35.9439 -35.9437 -35.9437  -2.2845  -2.2811  -2.2811  -2.2223
    -2.2223   7.7443  14.4868  14.4868  14.5039  15.3544  15.3544  15.5625
    15.6305  15.6305  17.1818  17.1818  17.4794  17.5498  17.5498  17.8760
    17.8760  20.8485  22.6803  22.6803  23.1190  24.4313

          k = 0.0000 0.0000 0.4082 (  2641 PWs)   bands (ev):

   -76.5639 -76.5608 -69.9039 -39.8514 -39.8510 -39.8510 -39.8386 -39.8386
   -39.8383 -35.9444 -35.9434 -35.9434  -2.2865  -2.2751  -2.2751  -2.2156
    -2.2156   8.7829  13.0923  14.3508  14.3508  15.4643  15.4901  15.4901
    16.0109  16.0109  17.0665  17.0665  17.1386  17.3038  17.3038  17.7505
    17.7505  18.8875  22.2805  22.2805  22.8694  23.5755

          k = 0.0000 0.0000-0.6124 (  2638 PWs)   bands (ev):

   -76.5623 -76.5623 -69.9039 -39.8456 -39.8456 -39.8455 -39.8443 -39.8441
   -39.8441 -35.9447 -35.9434 -35.9434  -2.2871  -2.2727  -2.2727  -2.2121
    -2.2121   9.7751  11.8215  14.3221  14.3221  15.4769  15.4769  15.5158
    16.2872  16.2872  16.9794  16.9794  17.1556  17.2461  17.2461  17.6120
    17.6120  18.0105  22.2697  22.2697  22.8173  23.0497

          k = 0.0000 0.1925-0.0680 (  2659 PWs)   bands (ev):

   -76.5651 -76.5597 -69.9039 -39.8557 -39.8555 -39.8555 -39.8341 -39.8341
   -39.8336 -35.9439 -35.9437 -35.9437  -2.2845  -2.2811  -2.2811  -2.2223
    -2.2223   7.7443  14.4868  14.4868  14.5039  15.3544  15.3544  15.5624
    15.6305  15.6305  17.1818  17.1818  17.4794  17.5498  17.5498  17.8760
    17.8760  20.8485  22.6803  22.6803  23.1190  24.4313

          k = 0.0000 0.1925 0.1361 (  2637 PWs)   bands (ev):

   -76.5649 -76.5598 -69.9039 -39.8581 -39.8580 -39.8492 -39.8397 -39.8315
   -39.8315 -35.9441 -35.9435 -35.9435  -2.2902  -2.2768  -2.2768  -2.2245
    -2.2189   7.8658  13.9059  14.8997  15.1021  15.1021  15.3176  15.3971
    15.6873  15.6873  17.0511  17.2575  17.4471  17.5028  17.5029  17.7632
    17.9203  21.3565  21.3681  21.3681  23.4265  23.5056

          k = 0.0000 0.1925 0.3402 (  2645 PWs)   bands (ev):

   -76.5641 -76.5606 -69.9039 -39.8572 -39.8572 -39.8470 -39.8423 -39.8327
   -39.8326 -35.9446 -35.9434 -35.9434  -2.2920  -2.2724  -2.2707  -2.2236
    -2.2126   8.6751  13.3306  14.5420  14.7532  15.2823  15.4687  15.6237
    15.8136  15.9056  16.8843  17.0791  17.2297  17.2409  17.3187  17.7122
    17.8899  19.3832  20.5299  20.5396  22.8888  24.6683

          k = 0.0000 0.1925-0.6804 (  2642 PWs)   bands (ev):

   -76.5628 -76.5618 -69.9039 -39.8541 -39.8530 -39.8526 -39.8372 -39.8369
   -39.8356 -35.9446 -35.9436 -35.9432  -2.2874  -2.2734  -2.2681  -2.2189
    -2.2099   9.8018  12.3004  14.0487  14.5450  15.3337  15.4727  15.5855
    16.2530  16.3312  16.8038  16.8141  17.0837  17.1630  17.3570  17.6894
    17.7002  18.1184  19.9810  20.4036  22.7221  25.3072

          k = 0.0000 0.1925-0.4763 (  2629 PWs)   bands (ev):

   -76.5632 -76.5614 -69.9039 -39.8583 -39.8464 -39.8458 -39.8438 -39.8432
   -39.8314 -35.9444 -35.9436 -35.9433  -2.2837  -2.2755  -2.2710  -2.2156
    -2.2137   9.4578  12.6993  14.1960  14.3438  15.2818  15.4401  15.6485
    16.1655  16.2681  16.7524  16.9029  17.0282  17.2200  17.2329  17.6896
    17.9356  18.4570  19.8701  21.0573  22.8109  25.2313

          k = 0.0000 0.1925-0.2722 (  2643 PWs)   bands (ev):

   -76.5644 -76.5603 -69.9039 -39.8589 -39.8507 -39.8500 -39.8395 -39.8388
   -39.8308 -35.9442 -35.9435 -35.9435  -2.2854  -2.2776  -2.2760  -2.2198
    -2.2177   8.3388  13.7700  14.2794  14.8930  15.1431  15.5075  15.5092
    15.7687  15.8219  16.9880  17.2322  17.2363  17.2654  17.3380  17.7033
    18.0141  20.1535  20.2234  22.2962  23.1756  25.1657

          k = 0.0000 0.3849-0.1361 (  2641 PWs)   bands (ev):

   -76.5639 -76.5608 -69.9039 -39.8514 -39.8510 -39.8510 -39.8386 -39.8386
   -39.8382 -35.9444 -35.9434 -35.9434  -2.2865  -2.2751  -2.2751  -2.2156
    -2.2156   8.7829  13.0923  14.3508  14.3508  15.4643  15.4901  15.4901
    16.0109  16.0109  17.0665  17.0665  17.1386  17.3038  17.3038  17.7505
    17.7505  18.8875  22.2805  22.2805  22.8694  23.5755

          k = 0.0000 0.3849 0.0680 (  2645 PWs)   bands (ev):

   -76.5641 -76.5606 -69.9039 -39.8572 -39.8572 -39.8470 -39.8423 -39.8327
   -39.8326 -35.9446 -35.9434 -35.9434  -2.2920  -2.2724  -2.2707  -2.2236
    -2.2126   8.6751  13.3306  14.5420  14.7532  15.2823  15.4687  15.6237
    15.8136  15.9056  16.8843  17.0791  17.2297  17.2409  17.3187  17.7122
    17.8899  19.3832  20.5299  20.5395  22.8888  24.6683

          k = 0.0000 0.3849 0.2722 (  2626 PWs)   bands (ev):

   -76.5638 -76.5608 -69.9038 -39.8601 -39.8601 -39.8549 -39.8339 -39.8298
   -39.8298 -35.9450 -35.9431 -35.9431  -2.3020  -2.2627  -2.2627  -2.2309
    -2.2071   9.1924  12.9165  14.8304  15.3435  15.3915  15.4942  15.4943
    15.8647  15.8647  16.6006  17.0351  17.0351  17.1653  17.3026  17.7469
    17.7658  18.9562  19.2535  19.2535  22.3757  23.0321

          k = 0.0000 0.3849-0.7485 (  2633 PWs)   bands (ev):

   -76.5632 -76.5614 -69.9039 -39.8606 -39.8589 -39.8585 -39.8314 -39.8312
   -39.8288 -35.9451 -35.9432 -35.9430  -2.3004  -2.2625  -2.2598  -2.2313
    -2.2041  10.0448  12.6729  14.1268  15.0284  15.1712  15.5345  15.7501
    15.9650  16.1695  16.6880  16.8829  16.9553  17.0590  17.4069  17.6332
    17.8181  18.2059  18.4488  18.7329  22.5245  24.1222

          k = 0.0000 0.3849-0.5443 (  2618 PWs)   bands (ev):

   -76.5623 -76.5623 -69.9039 -39.8616 -39.8539 -39.8533 -39.8365 -39.8359
   -39.8278 -35.9444 -35.9437 -35.9430  -2.2876  -2.2718  -2.2632  -2.2235
    -2.2081  10.2191  13.0258  13.2437  14.6894  15.0275  15.4265  15.9061
    16.0690  16.4977  16.6245  16.7108  16.9413  17.0873  17.2248  17.9168
    18.0114  18.0530  18.4699  19.3485  22.6011  27.0654

          k = 0.0000 0.3849-0.3402 (  2629 PWs)   bands (ev):

   -76.5632 -76.5614 -69.9039 -39.8583 -39.8464 -39.8458 -39.8438 -39.8432
   -39.8314 -35.9444 -35.9436 -35.9433  -2.2837  -2.2755  -2.2710  -2.2156
    -2.2137   9.4578  12.6993  14.1960  14.3438  15.2818  15.4401  15.6485
    16.1655  16.2681  16.7524  16.9030  17.0282  17.2200  17.2329  17.6896
    17.9356  18.4570  19.8701  21.0573  22.8109  25.2315

          k = 0.0000-0.5774 0.2041 (  2638 PWs)   bands (ev):

   -76.5623 -76.5623 -69.9039 -39.8456 -39.8456 -39.8455 -39.8443 -39.8442
   -39.8441 -35.9447 -35.9434 -35.9434  -2.2871  -2.2727  -2.2727  -2.2121
    -2.2121   9.7751  11.8215  14.3221  14.3221  15.4769  15.4769  15.5158
    16.2872  16.2872  16.9795  16.9795  17.1556  17.2461  17.2461  17.6120
    17.6120  18.0105  22.2697  22.2697  22.8173  23.0497

          k = 0.0000-0.5774 0.4082 (  2642 PWs)   bands (ev):

   -76.5628 -76.5618 -69.9039 -39.8541 -39.8530 -39.8526 -39.8372 -39.8369
   -39.8356 -35.9446 -35.9436 -35.9432  -2.2874  -2.2734  -2.2681  -2.2189
    -2.2099   9.8018  12.3004  14.0487  14.5450  15.3337  15.4728  15.5855
    16.2530  16.3311  16.8039  16.8142  17.0837  17.1630  17.3570  17.6894
    17.7002  18.1184  19.9810  20.4035  22.7221  25.3072

          k = 0.0000-0.5774 0.6124 (  2633 PWs)   bands (ev):

   -76.5632 -76.5614 -69.9039 -39.8606 -39.8589 -39.8585 -39.8314 -39.8312
   -39.8288 -35.9451 -35.9432 -35.9430  -2.3004  -2.2625  -2.2598  -2.2313
    -2.2041  10.0448  12.6729  14.1268  15.0284  15.1712  15.5345  15.7501
    15.9650  16.1695  16.6880  16.8829  16.9553  17.0590  17.4069  17.6332
    17.8181  18.2059  18.4488  18.7329  22.5245  24.1222

          k = 0.0000-0.5774-0.4082 (  2650 PWs)   bands (ev):

   -76.5634 -76.5613 -69.9040 -39.8629 -39.8610 -39.8610 -39.8295 -39.8295
   -39.8264 -35.9457 -35.9430 -35.9430  -2.3084  -2.2565  -2.2565  -2.2370
    -2.2011  10.2864  12.4171  14.5415  14.8650  15.6717  15.6717  15.8906
    16.0374  16.0374  16.0494  16.9559  17.1482  17.1482  17.3618  17.6071
    17.7388  18.0535  18.0536  18.1849  22.2350  22.9264

          k = 0.1667 0.2887-0.2041 (  2645 PWs)   bands (ev):

   -76.5641 -76.5606 -69.9039 -39.8572 -39.8572 -39.8470 -39.8423 -39.8327
   -39.8325 -35.9446 -35.9434 -35.9434  -2.2920  -2.2724  -2.2707  -2.2236
    -2.2126   8.6751  13.3306  14.5420  14.7532  15.2823  15.4687  15.6237
    15.8136  15.9056  16.8843  17.0791  17.2297  17.2409  17.3187  17.7122
    17.8899  19.3832  20.5299  20.5395  22.8888  24.6683

          k = 0.1667 0.2887-0.0000 (  2643 PWs)   bands (ev):

   -76.5644 -76.5603 -69.9039 -39.8589 -39.8507 -39.8500 -39.8395 -39.8388
   -39.8308 -35.9442 -35.9435 -35.9435  -2.2854  -2.2776  -2.2760  -2.2198
    -2.2177   8.3388  13.7700  14.2794  14.8930  15.1431  15.5075  15.5092
    15.7687  15.8219  16.9880  17.2322  17.2363  17.2654  17.3380  17.7033
    18.0141  20.1535  20.2234  22.2962  23.1756  25.1658

          k = 0.1667 0.2887-0.8165 (  2644 PWs)   bands (ev):

   -76.5634 -76.5613 -69.9039 -39.8607 -39.8546 -39.8522 -39.8379 -39.8348
   -39.8292 -35.9447 -35.9436 -35.9432  -2.2913  -2.2722  -2.2638  -2.2247
    -2.2088   9.5540  12.9333  14.2019  14.5802  15.2083  15.5704  15.7680
    15.8542  16.2362  16.6733  16.8836  16.9642  17.2233  17.2577  17.7208
    17.9356  18.8009  18.9315  19.3858  23.9146  24.6968

          k = 0.1667 0.2887-0.6124 (  2638 PWs)   bands (ev):

   -76.5623 -76.5623 -69.9039 -39.8605 -39.8587 -39.8453 -39.8449 -39.8301
   -39.8301 -35.9443 -35.9440 -35.9431  -2.2830  -2.2800  -2.2605  -2.2241
    -2.2080  10.2287  12.7319  13.6193  14.5701  15.1340  15.5933  15.6440
    16.0728  16.5329  16.6088  16.6940  16.9676  17.1913  17.3594  17.7437
    17.8019  18.0730  18.7931  18.8588  24.1377  24.7509

          k = 0.1667-0.6736 0.1361 (  2642 PWs)   bands (ev):

   -76.5628 -76.5618 -69.9039 -39.8541 -39.8530 -39.8526 -39.8372 -39.8369
   -39.8356 -35.9446 -35.9436 -35.9432  -2.2874  -2.2734  -2.2681  -2.2189
    -2.2099   9.8018  12.3004  14.0487  14.5450  15.3337  15.4728  15.5855
    16.2530  16.3312  16.8039  16.8142  17.0837  17.1630  17.3570  17.6894
    17.7002  18.1184  19.9810  20.4035  22.7221  25.3072

          k = 0.1667-0.6736 0.3402 (  2629 PWs)   bands (ev):

   -76.5632 -76.5614 -69.9039 -39.8583 -39.8464 -39.8458 -39.8438 -39.8432
   -39.8314 -35.9444 -35.9436 -35.9433  -2.2837  -2.2755  -2.2710  -2.2156
    -2.2137   9.4578  12.6993  14.1960  14.3438  15.2818  15.4401  15.6485
    16.1655  16.2681  16.7524  16.9030  17.0282  17.2200  17.2329  17.6896
    17.9356  18.4570  19.8701  21.0573  22.8109  25.2316

          k = 0.1667-0.6736 0.5443 (  2644 PWs)   bands (ev):

   -76.5634 -76.5613 -69.9039 -39.8607 -39.8546 -39.8522 -39.8379 -39.8348
   -39.8292 -35.9447 -35.9436 -35.9432  -2.2913  -2.2722  -2.2638  -2.2247
    -2.2088   9.5540  12.9333  14.2019  14.5802  15.2083  15.5704  15.7680
    15.8542  16.2362  16.6733  16.8836  16.9642  17.2233  17.2577  17.7208
    17.9356  18.8009  18.9314  19.3858  23.9146  24.6968

          k = 0.1667-0.6736-0.4763 (  2633 PWs)   bands (ev):

   -76.5632 -76.5614 -69.9039 -39.8606 -39.8589 -39.8584 -39.8314 -39.8312
   -39.8288 -35.9451 -35.9432 -35.9430  -2.3004  -2.2625  -2.2598  -2.2313
    -2.2041  10.0448  12.6729  14.1268  15.0284  15.1712  15.5345  15.7501
    15.9650  16.1695  16.6880  16.8829  16.9553  17.0591  17.4069  17.6332
    17.8181  18.2059  18.4488  18.7329  22.5245  24.1222

          k = 0.1667-0.6736-0.2722 (  2614 PWs)   bands (ev):

   -76.5628 -76.5618 -69.9039 -39.8628 -39.8606 -39.8531 -39.8371 -39.8284
   -39.8270 -35.9448 -35.9435 -35.9428  -2.2953  -2.2690  -2.2557  -2.2302
    -2.2041  10.3933  12.8398  13.8618  14.4608  15.2959  15.5959  15.6974
    15.8951  16.2879  16.6750  16.7233  17.1169  17.2501  17.4610  17.4679
    17.8469  18.1015  18.1672  18.1924  23.6891  24.4427

          k = 0.1667-0.6736-0.0680 (  2638 PWs)   bands (ev):

   -76.5623 -76.5623 -69.9039 -39.8605 -39.8587 -39.8453 -39.8449 -39.8301
   -39.8301 -35.9443 -35.9440 -35.9431  -2.2830  -2.2800  -2.2605  -2.2241
    -2.2080  10.2287  12.7319  13.6193  14.5701  15.1340  15.5933  15.6440
    16.0728  16.5329  16.6088  16.6940  16.9676  17.1913  17.3594  17.7437
    17.8019  18.0730  18.7931  18.8588  24.1377  24.7509

          k = 0.3333-0.5774 0.0000 (  2618 PWs)   bands (ev):

   -76.5623 -76.5623 -69.9039 -39.8616 -39.8539 -39.8533 -39.8365 -39.8360
   -39.8278 -35.9444 -35.9437 -35.9430  -2.2876  -2.2718  -2.2632  -2.2235
    -2.2081  10.2191  13.0258  13.2437  14.6894  15.0275  15.4265  15.9061
    16.0690  16.4977  16.6245  16.7108  16.9413  17.0873  17.2248  17.9168
    18.0114  18.0531  18.4699  19.3485  22.6011  27.0654

          k = 0.3333-0.5774 0.2041 (  2638 PWs)   bands (ev):

   -76.5623 -76.5623 -69.9039 -39.8605 -39.8587 -39.8453 -39.8449 -39.8301
   -39.8301 -35.9443 -35.9440 -35.9431  -2.2830  -2.2800  -2.2605  -2.2241
    -2.2080  10.2287  12.7319  13.6193  14.5701  15.1340  15.5933  15.6440
    16.0728  16.5329  16.6088  16.6940  16.9676  17.1913  17.3594  17.7437
    17.8019  18.0730  18.7930  18.8588  24.1377  24.7509

 ------ SPIN DOWN ----------


          k = 0.0000 0.0000 0.0000 (  2685 PWs)   bands (ev):

   -75.0254 -75.0186 -66.6506 -38.3591 -38.3591 -38.3591 -38.3326 -38.3326
   -38.3326 -32.7699 -32.7699 -32.7699  -2.2859  -2.2859  -2.2859  -2.2317
    -2.2317   7.4386  15.4987  15.4988  15.4988  16.4280  16.4280  17.3916
    17.3916  17.3916  18.9822  18.9822  18.9822  19.6114  19.6114  20.0778
    20.0778  23.3103  23.6416  23.6417  23.6417  25.0354

          k = 0.0000 0.0000 0.2041 (  2659 PWs)   bands (ev):

   -75.0247 -75.0191 -66.6504 -38.3577 -38.3575 -38.3575 -38.3341 -38.3341
   -38.3338 -32.7700 -32.7697 -32.7697  -2.2859  -2.2824  -2.2824  -2.2290
    -2.2290   7.8098  14.9492  15.4712  15.4712  16.6163  16.6163  17.2299
    17.3352  17.3352  18.4624  18.7518  18.7518  19.6562  19.6562  20.0092
    20.0092  21.9734  23.4331  23.4331  23.4840  24.8653

          k = 0.0000 0.0000 0.4082 (  2641 PWs)   bands (ev):

   -75.0235 -75.0202 -66.6502 -38.3530 -38.3526 -38.3526 -38.3391 -38.3391
   -38.3389 -32.7706 -32.7695 -32.7695  -2.2880  -2.2765  -2.2765  -2.2225
    -2.2225   8.8433  13.3410  15.4607  15.4607  16.8910  16.9169  16.9169
    17.3100  17.3100  18.0610  18.3546  18.3546  19.6159  19.6159  19.9100
    19.9100  20.4777  23.1684  23.2857  23.2857  24.1507

          k = 0.0000 0.0000-0.6124 (  2638 PWs)   bands (ev):

   -75.0218 -75.0218 -66.6502 -38.3467 -38.3465 -38.3465 -38.3455 -38.3453
   -38.3453 -32.7709 -32.7694 -32.7694  -2.2886  -2.2742  -2.2742  -2.2191
    -2.2191   9.8183  12.0222  15.4672  15.4672  16.8506  17.0173  17.0173
    17.3640  17.3640  17.9520  18.1717  18.1717  19.5530  19.5530  19.8164
    19.8690  19.8690  23.1402  23.4039  23.4039  23.6566

          k = 0.0000 0.1925-0.0680 (  2659 PWs)   bands (ev):

   -75.0247 -75.0191 -66.6504 -38.3577 -38.3575 -38.3575 -38.3341 -38.3341
   -38.3338 -32.7700 -32.7697 -32.7697  -2.2859  -2.2824  -2.2824  -2.2290
    -2.2290   7.8098  14.9492  15.4712  15.4712  16.6163  16.6163  17.2299
    17.3352  17.3352  18.4624  18.7518  18.7518  19.6562  19.6562  20.0092
    20.0092  21.9734  23.4331  23.4332  23.4840  24.8653

          k = 0.0000 0.1925 0.1361 (  2637 PWs)   bands (ev):

   -75.0246 -75.0191 -66.6502 -38.3602 -38.3602 -38.3508 -38.3403 -38.3314
   -38.3314 -32.7701 -32.7696 -32.7696  -2.2916  -2.2781  -2.2781  -2.2313
    -2.2255   7.9316  14.7091  15.6344  15.6344  16.5914  16.5986  17.0029
    17.4074  17.4075  18.5336  18.5336  18.6774  19.6014  19.6868  19.8914
    20.0492  21.9930  22.3830  22.3830  24.0806  24.4125

          k = 0.0000 0.1925 0.3402 (  2645 PWs)   bands (ev):

   -75.0237 -75.0200 -66.6503 -38.3592 -38.3592 -38.3484 -38.3432 -38.3328
   -38.3326 -32.7706 -32.7695 -32.7695  -2.2934  -2.2737  -2.2721  -2.2307
    -2.2194   8.7410  13.8541  15.3103  15.6975  16.6093  16.8349  16.8359
    17.3182  17.4510  18.0795  18.1657  18.5698  19.5794  19.6765  19.7346
    19.9731  20.8262  21.5137  21.6729  23.6665  25.3736

          k = 0.0000 0.1925-0.6804 (  2642 PWs)   bands (ev):

   -75.0224 -75.0213 -66.6503 -38.3560 -38.3546 -38.3544 -38.3376 -38.3374
   -38.3359 -32.7708 -32.7697 -32.7694  -2.2888  -2.2748  -2.2695  -2.2260
    -2.2169   9.8691  12.5240  14.9022  15.6264  16.4715  16.9683  17.0856
    17.3893  17.5191  17.9979  18.0118  18.2968  19.5430  19.5788  19.7371
    19.8379  19.8752  21.2630  21.5661  23.4361  25.7796

          k = 0.0000 0.1925-0.4763 (  2629 PWs)   bands (ev):

   -75.0228 -75.0208 -66.6502 -38.3604 -38.3474 -38.3472 -38.3447 -38.3443
   -38.3314 -32.7705 -32.7697 -32.7694  -2.2851  -2.2769  -2.2723  -2.2225
    -2.2209   9.5226  12.9671  14.8971  15.4794  16.5291  17.0250  17.0946
    17.2923  17.5165  17.9707  18.1722  18.2462  19.5382  19.7124  19.7358
    19.8478  20.1335  21.2174  22.0979  23.3605  25.7771

          k = 0.0000 0.1925-0.2722 (  2643 PWs)   bands (ev):

   -75.0240 -75.0197 -66.6502 -38.3611 -38.3521 -38.3516 -38.3400 -38.3395
   -38.3306 -32.7703 -32.7696 -32.7696  -2.2867  -2.2789  -2.2774  -2.2268
    -2.2244   8.4030  14.2745  15.3833  15.3933  16.6166  16.9112  16.9753
    17.1686  17.4780  18.1733  18.3080  18.5952  19.5819  19.7892  19.8679
    19.9374  21.4372  21.5500  23.0489  23.4619  25.8123

          k = 0.0000 0.3849-0.1361 (  2641 PWs)   bands (ev):

   -75.0235 -75.0202 -66.6502 -38.3530 -38.3526 -38.3526 -38.3391 -38.3391
   -38.3389 -32.7706 -32.7695 -32.7695  -2.2880  -2.2765  -2.2765  -2.2225
    -2.2225   8.8433  13.3410  15.4607  15.4607  16.8910  16.9169  16.9169
    17.3100  17.3100  18.0611  18.3546  18.3546  19.6159  19.6159  19.9100
    19.9100  20.4778  23.1684  23.2857  23.2857  24.1507

          k = 0.0000 0.3849 0.0680 (  2645 PWs)   bands (ev):

   -75.0237 -75.0200 -66.6503 -38.3592 -38.3592 -38.3484 -38.3432 -38.3328
   -38.3326 -32.7706 -32.7695 -32.7695  -2.2934  -2.2737  -2.2721  -2.2307
    -2.2194   8.7410  13.8541  15.3103  15.6975  16.6094  16.8349  16.8359
    17.3182  17.4510  18.0796  18.1657  18.5698  19.5793  19.6765  19.7346
    19.9731  20.8262  21.5137  21.6729  23.6665  25.3736

          k = 0.0000 0.3849 0.2722 (  2626 PWs)   bands (ev):

   -75.0234 -75.0202 -66.6502 -38.3623 -38.3623 -38.3571 -38.3341 -38.3297
   -38.3297 -32.7711 -32.7692 -32.7692  -2.3034  -2.2639  -2.2639  -2.2380
    -2.2139   9.2722  13.4739  15.9796  15.9796  16.1704  16.1713  17.0270
    17.3882  17.3882  17.9625  17.9625  18.5831  19.4270  19.5724  19.5814
    19.9758  20.4229  20.6175  20.6176  23.1944  24.1211

          k = 0.0000 0.3849-0.7485 (  2633 PWs)   bands (ev):

   -75.0227 -75.0209 -66.6502 -38.3631 -38.3609 -38.3606 -38.3314 -38.3313
   -38.3286 -32.7713 -32.7693 -32.7691  -2.3018  -2.2638  -2.2610  -2.2383
    -2.2112  10.1644  12.9961  14.6665  15.8539  15.9973  16.9145  17.0449
    17.3179  17.5942  17.8075  17.8962  18.5312  19.3921  19.4770  19.6311
    19.8645  19.9440  20.1761  20.2176  23.4072  24.9766

          k = 0.0000 0.3849-0.5443 (  2618 PWs)   bands (ev):

   -75.0218 -75.0217 -66.6501 -38.3641 -38.3554 -38.3551 -38.3368 -38.3364
   -38.3275 -32.7705 -32.7699 -32.7691  -2.2890  -2.2731  -2.2643  -2.2305
    -2.2154  10.3298  13.3485  13.5284  15.7305  16.0378  16.9910  17.3449
    17.3926  17.5772  17.9205  18.0107  18.2154  19.4254  19.5846  19.6772
    19.8437  20.0577  20.1184  20.6667  23.4390  27.6478

          k = 0.0000 0.3849-0.3402 (  2629 PWs)   bands (ev):

   -75.0228 -75.0208 -66.6502 -38.3604 -38.3474 -38.3472 -38.3447 -38.3443
   -38.3314 -32.7705 -32.7697 -32.7694  -2.2851  -2.2769  -2.2723  -2.2225
    -2.2209   9.5226  12.9671  14.8971  15.4794  16.5291  17.0250  17.0946
    17.2923  17.5165  17.9707  18.1721  18.2462  19.5382  19.7124  19.7358
    19.8478  20.1335  21.2174  22.0979  23.3605  25.7771

          k = 0.0000-0.5774 0.2041 (  2638 PWs)   bands (ev):

   -75.0218 -75.0218 -66.6502 -38.3466 -38.3465 -38.3465 -38.3455 -38.3453
   -38.3453 -32.7709 -32.7694 -32.7694  -2.2886  -2.2742  -2.2742  -2.2191
    -2.2191   9.8183  12.0222  15.4672  15.4672  16.8507  17.0172  17.0173
    17.3640  17.3640  17.9520  18.1717  18.1717  19.5530  19.5530  19.8165
    19.8690  19.8690  23.1402  23.4039  23.4039  23.6566

          k = 0.0000-0.5774 0.4082 (  2642 PWs)   bands (ev):

   -75.0224 -75.0213 -66.6503 -38.3560 -38.3546 -38.3544 -38.3376 -38.3374
   -38.3359 -32.7708 -32.7697 -32.7694  -2.2888  -2.2748  -2.2695  -2.2260
    -2.2169   9.8691  12.5240  14.9022  15.6264  16.4715  16.9683  17.0856
    17.3893  17.5191  17.9979  18.0118  18.2968  19.5429  19.5788  19.7371
    19.8380  19.8752  21.2630  21.5661  23.4361  25.7797

          k = 0.0000-0.5774 0.6124 (  2633 PWs)   bands (ev):

   -75.0227 -75.0209 -66.6502 -38.3631 -38.3609 -38.3606 -38.3314 -38.3313
   -38.3286 -32.7713 -32.7693 -32.7691  -2.3018  -2.2638  -2.2610  -2.2383
    -2.2112  10.1644  12.9961  14.6665  15.8539  15.9973  16.9145  17.0449
    17.3179  17.5942  17.8075  17.8962  18.5313  19.3921  19.4770  19.6311
    19.8645  19.9440  20.1761  20.2176  23.4072  24.9766

          k = 0.0000-0.5774-0.4082 (  2650 PWs)   bands (ev):

   -75.0230 -75.0207 -66.6504 -38.3658 -38.3632 -38.3631 -38.3293 -38.3293
   -38.3259 -32.7718 -32.7691 -32.7691  -2.3098  -2.2577  -2.2577  -2.2441
    -2.2080  10.4592  12.6124  15.4473  15.7871  16.2268  16.2268  17.2340
    17.2340  17.3287  17.9172  17.9172  18.6249  19.1052  19.4633  19.5714
    19.8257  19.8258  19.8705  20.0803  23.0915  24.0760

          k = 0.1667 0.2887-0.2041 (  2645 PWs)   bands (ev):

   -75.0237 -75.0200 -66.6503 -38.3592 -38.3592 -38.3484 -38.3432 -38.3328
   -38.3326 -32.7706 -32.7695 -32.7695  -2.2934  -2.2737  -2.2721  -2.2307
    -2.2194   8.7410  13.8541  15.3103  15.6975  16.6094  16.8349  16.8359
    17.3182  17.4510  18.0796  18.1657  18.5698  19.5793  19.6765  19.7346
    19.9731  20.8262  21.5137  21.6729  23.6665  25.3737

          k = 0.1667 0.2887-0.0000 (  2643 PWs)   bands (ev):

   -75.0240 -75.0197 -66.6502 -38.3611 -38.3521 -38.3516 -38.3400 -38.3395
   -38.3306 -32.7703 -32.7696 -32.7696  -2.2867  -2.2789  -2.2774  -2.2268
    -2.2244   8.4030  14.2745  15.3833  15.3933  16.6166  16.9111  16.9753
    17.1686  17.4780  18.1733  18.3080  18.5952  19.5819  19.7892  19.8679
    19.9374  21.4372  21.5500  23.0489  23.4620  25.8127

          k = 0.1667 0.2887-0.8165 (  2644 PWs)   bands (ev):

   -75.0229 -75.0207 -66.6503 -38.3630 -38.3566 -38.3538 -38.3384 -38.3351
   -38.3291 -32.7708 -32.7697 -32.7693  -2.2927  -2.2736  -2.2651  -2.2318
    -2.2158   9.6336  13.3621  14.7050  15.4389  16.4207  16.9603  17.0711
    17.2153  17.6698  17.8639  17.9837  18.4521  19.5462  19.5796  19.7025
    19.8789  20.3075  20.4771  20.7657  24.4593  25.4492

          k = 0.1667 0.2887-0.6124 (  2638 PWs)   bands (ev):

   -75.0218 -75.0218 -66.6503 -38.3627 -38.3611 -38.3463 -38.3460 -38.3300
   -38.3299 -32.7704 -32.7701 -32.7692  -2.2843  -2.2814  -2.2617  -2.2311
    -2.2152  10.3392  12.9717  14.1197  15.2939  16.3047  17.0761  17.0951
    17.3982  17.6837  17.9157  17.9318  18.3101  19.5147  19.5515  19.6494
    19.8180  19.8705  20.3574  20.4030  24.6354  25.5864

          k = 0.1667-0.6736 0.1361 (  2642 PWs)   bands (ev):

   -75.0224 -75.0213 -66.6503 -38.3560 -38.3546 -38.3543 -38.3376 -38.3374
   -38.3359 -32.7708 -32.7697 -32.7694  -2.2888  -2.2748  -2.2695  -2.2260
    -2.2169   9.8691  12.5240  14.9022  15.6264  16.4716  16.9683  17.0856
    17.3893  17.5191  17.9980  18.0118  18.2968  19.5429  19.5788  19.7371
    19.8380  19.8752  21.2630  21.5661  23.4361  25.7796

          k = 0.1667-0.6736 0.3402 (  2629 PWs)   bands (ev):

   -75.0228 -75.0208 -66.6502 -38.3604 -38.3474 -38.3471 -38.3447 -38.3443
   -38.3314 -32.7705 -32.7697 -32.7694  -2.2851  -2.2769  -2.2723  -2.2225
    -2.2209   9.5226  12.9671  14.8971  15.4794  16.5291  17.0250  17.0946
    17.2923  17.5165  17.9707  18.1722  18.2462  19.5382  19.7124  19.7358
    19.8478  20.1335  21.2175  22.0979  23.3605  25.7772

          k = 0.1667-0.6736 0.5443 (  2644 PWs)   bands (ev):

   -75.0229 -75.0207 -66.6503 -38.3630 -38.3566 -38.3538 -38.3384 -38.3351
   -38.3291 -32.7708 -32.7697 -32.7693  -2.2927  -2.2736  -2.2651  -2.2318
    -2.2158   9.6336  13.3621  14.7050  15.4389  16.4207  16.9603  17.0710
    17.2153  17.6698  17.8639  17.9837  18.4521  19.5462  19.5796  19.7025
    19.8789  20.3075  20.4771  20.7658  24.4593  25.4492

          k = 0.1667-0.6736-0.4763 (  2633 PWs)   bands (ev):

   -75.0227 -75.0209 -66.6502 -38.3631 -38.3609 -38.3606 -38.3314 -38.3313
   -38.3286 -32.7713 -32.7693 -32.7691  -2.3018  -2.2638  -2.2610  -2.2383
    -2.2112  10.1644  12.9961  14.6665  15.8539  15.9973  16.9145  17.0449
    17.3179  17.5942  17.8075  17.8962  18.5313  19.3921  19.4770  19.6311
    19.8645  19.9440  20.1761  20.2176  23.4072  24.9766

          k = 0.1667-0.6736-0.2722 (  2614 PWs)   bands (ev):

   -75.0223 -75.0212 -66.6501 -38.3652 -38.3632 -38.3546 -38.3375 -38.3282
   -38.3267 -32.7709 -32.7696 -32.7690  -2.2966  -2.2703  -2.2569  -2.2373
    -2.2113  10.5519  13.0833  14.3607  14.8293  16.4129  17.0553  17.0796
    17.2973  17.6825  17.7887  17.8980  18.4683  19.4414  19.5300  19.6405
    19.7735  19.8766  19.9235  19.9617  24.3657  25.2896

          k = 0.1667-0.6736-0.0680 (  2638 PWs)   bands (ev):

   -75.0218 -75.0218 -66.6503 -38.3627 -38.3611 -38.3463 -38.3460 -38.3300
   -38.3299 -32.7704 -32.7701 -32.7692  -2.2843  -2.2814  -2.2617  -2.2311
    -2.2152  10.3392  12.9718  14.1197  15.2939  16.3047  17.0761  17.0951
    17.3982  17.6837  17.9157  17.9319  18.3101  19.5147  19.5515  19.6494
    19.8180  19.8705  20.3574  20.4030  24.6354  25.5864

          k = 0.3333-0.5774 0.0000 (  2618 PWs)   bands (ev):

   -75.0218 -75.0217 -66.6501 -38.3641 -38.3554 -38.3551 -38.3368 -38.3364
   -38.3275 -32.7705 -32.7699 -32.7691  -2.2890  -2.2731  -2.2643  -2.2305
    -2.2154  10.3298  13.3485  13.5284  15.7305  16.0378  16.9910  17.3449
    17.3926  17.5772  17.9205  18.0108  18.2154  19.4254  19.5846  19.6772
    19.8437  20.0577  20.1184  20.6667  23.4390  27.6478

          k = 0.3333-0.5774 0.2041 (  2638 PWs)   bands (ev):

   -75.0218 -75.0218 -66.6503 -38.3627 -38.3611 -38.3463 -38.3460 -38.3300
   -38.3299 -32.7704 -32.7701 -32.7692  -2.2843  -2.2814  -2.2617  -2.2311
    -2.2152  10.3392  12.9718  14.1197  15.2939  16.3047  17.0761  17.0951
    17.3982  17.6837  17.9157  17.9318  18.3101  19.5147  19.5515  19.6494
    19.8180  19.8705  20.3574  20.4030  24.6354  25.5864

     the Fermi energy is    19.3392 ev

!    total energy              =   -1524.73038950 Ry
     total all-electron energy =    -20474.011400 Ry
     estimated scf accuracy    <          9.1E-09 Ry
     smearing contrib. (-TS)   =      -0.00905042 Ry
     internal energy E=F+TS    =   -1524.72133908 Ry

     The total energy is F=E-TS. E is the sum of the following terms:
     one-electron contribution =    -441.40289438 Ry
     hartree contribution      =     270.81605431 Ry
     xc contribution           =    -137.80024045 Ry
     ewald contribution        =    -677.45861314 Ry
     one-center paw contrib.   =    -538.87564542 Ry

     total magnetization       =     5.33 Bohr mag/cell
     absolute magnetization    =     5.61 Bohr mag/cell

     convergence has been achieved in  22 iterations

     negative rho (up, down):  0.000E+00 1.470E-04

     Forces acting on atoms (cartesian axes, Ry/au):

     atom    1 type  2   force =     0.00000000   -0.00000000   -0.00000000
     atom    2 type  3   force =     0.00000000    0.00000000    0.00000000
     atom    3 type  1   force =     0.00000000    0.00000000   -0.00000200
     atom    4 type  1   force =    -0.00000000    0.00000000    0.00000200

     Total force =     0.000003     Total SCF correction =     0.000030
     SCF correction compared to forces is large: reduce conv_thr to get better values


     Computing stress (Cartesian axis) and pressure


     negative rho (up, down):  0.000E+00 1.470E-04
          total   stress  (Ry/bohr**3)                   (kbar)     P=      127.46
   0.00086648   0.00000000   0.00000000          127.46        0.00        0.00
   0.00000000   0.00086648  -0.00000000            0.00      127.46       -0.00
   0.00000000   0.00000000   0.00086640            0.00        0.00      127.45


     Writing all to output data dir ./outdir/Co2FeSn.save/
 
     init_run     :      0.77s CPU      1.09s WALL (       1 calls)
     electrons    :     40.56s CPU     42.75s WALL (       1 calls)
     forces       :      0.22s CPU      0.24s WALL (       1 calls)
     stress       :      0.45s CPU      0.47s WALL (       1 calls)

     Called by init_run:
     wfcinit      :      0.45s CPU      0.53s WALL (       1 calls)
     potinit      :      0.16s CPU      0.23s WALL (       1 calls)
     hinit0       :      0.10s CPU      0.20s WALL (       1 calls)

     Called by electrons:
     c_bands      :     31.39s CPU     33.05s WALL (      22 calls)
     sum_band     :      5.00s CPU      5.25s WALL (      22 calls)
     v_of_rho     :      0.31s CPU      0.35s WALL (      23 calls)
     newd         :      0.69s CPU      0.76s WALL (      23 calls)
     PAW_pot      :      3.25s CPU      3.38s WALL (      23 calls)
     mix_rho      :      0.04s CPU      0.06s WALL (      22 calls)

     Called by c_bands:
     init_us_2    :      0.24s CPU      0.27s WALL (    3008 calls)
     init_us_2:cp :      0.23s CPU      0.26s WALL (    3008 calls)
     cegterg      :     30.33s CPU     31.48s WALL (    1408 calls)

     Called by *egterg:
     cdiaghg      :      9.91s CPU     10.08s WALL (    5964 calls)
     h_psi        :     16.67s CPU     17.63s WALL (    6028 calls)
     s_psi        :      0.71s CPU      0.75s WALL (    6028 calls)
     g_psi        :      0.08s CPU      0.08s WALL (    4556 calls)

     Called by h_psi:
     h_psi:calbec :      0.98s CPU      1.05s WALL (    6028 calls)
     vloc_psi     :     14.88s CPU     15.72s WALL (    6028 calls)
     add_vuspsi   :      0.73s CPU      0.77s WALL (    6028 calls)

     General routines
     calbec       :      1.37s CPU      1.46s WALL (    7756 calls)
     fft          :      0.13s CPU      0.17s WALL (     613 calls)
     ffts         :      0.01s CPU      0.01s WALL (      90 calls)
     fftw         :     16.50s CPU     17.48s WALL (  318740 calls)
     interpolate  :      0.02s CPU      0.02s WALL (      46 calls)
 
     Parallel routines
 
     PWSCF        :     42.89s CPU     46.34s WALL

 
   This run was terminated on:  23:24:12   8Oct2025            

=------------------------------------------------------------------------------=
   JOB DONE.
=------------------------------------------------------------------------------=
