
     Program PWSCF v.7.1 starts on  8Oct2025 at 23:24:13 

     This program is part of the open-source Quantum ESPRESSO suite
     for quantum simulation of materials; please cite
         "P. Giannozzi et al., J. Phys.:Condens. Matter 21 395502 (2009);
         "P. Giannozzi et al., J. Phys.:Condens. Matter 29 465901 (2017);
         "P. Giannozzi et al., J. Chem. Phys. 152 154105 (2020);
          URL http://www.quantum-espresso.org", 
     in publications or presentations arising from this work. More details at
     http://www.quantum-espresso.org/quote

     Parallel version (MPI), running on    20 processors

     MPI processes distributed on     1 nodes
     60705 MiB available memory on the printing compute node when the environment starts
 
     Reading input from Co2FeSn_65.in

     Current dimensions of program PWSCF are:
     Max number of different atomic species (ntypx) = 10
     Max number of k-points (npk) =  40000
     Max angular momentum in pseudopotentials (lmaxx) =  4
     file Co.pbe-spn-kjpaw_psl.0.3.1.UPF: wavefunction(s)  3P 3D renormalized
     file Fe.pbe-spn-kjpaw_psl.1.0.0.UPF: wavefunction(s)  3P 3D renormalized
     file Sn.pbe-dn-kjpaw_psl.1.0.0.UPF: wavefunction(s)  5S 5P 4D renormalized
 
     R & G space division:  proc/nbgrp/npool/nimage =      20
     Subspace diagonalization in iterative solution of the eigenvalue problem:
     a serial algorithm will be used

 
     Parallelization info
     --------------------
     sticks:   dense  smooth     PW     G-vecs:    dense   smooth      PW
     Min         109      53     15                 3365     1177     189
     Max         110      54     16                 3368     1182     194
     Sum        2185    1075    313                67337    23589    3839
 
     Using Slab Decomposition
 


     bravais-lattice index     =           14
     lattice parameter (alat)  =       7.8036  a.u.
     unit-cell volume          =     336.0264 (a.u.)^3
     number of atoms/cell      =            4
     number of atomic types    =            3
     number of electrons       =        64.00
     number of Kohn-Sham states=           38
     kinetic-energy cutoff     =      65.0000  Ry
     charge density cutoff     =     520.0000  Ry
     scf convergence threshold =      1.0E-08
     mixing beta               =       0.2000
     number of iterations used =            8  plain     mixing
     Exchange-correlation= SLA  PW   PBX  PBC
                           (   1   4   3   4   0   0   0)

     celldm(1)=   7.803620  celldm(2)=   1.000000  celldm(3)=   1.000000
     celldm(4)=   0.500000  celldm(5)=   0.500000  celldm(6)=   0.500000

     crystal axes: (cart. coord. in units of alat)
               a(1) = (   1.000000   0.000000   0.000000 )  
               a(2) = (   0.500000   0.866025   0.000000 )  
               a(3) = (   0.500000   0.288675   0.816497 )  

     reciprocal axes: (cart. coord. in units 2 pi/alat)
               b(1) = (  1.000000 -0.577350 -0.408248 )  
               b(2) = (  0.000000  1.154701 -0.408248 )  
               b(3) = (  0.000000  0.000000  1.224745 )  


     PseudoPot. # 1 for Co read from file:
     <HPC_PATH>
     MD5 check sum: 3c0a43779828c046024e4f3be63f8e67
     Pseudo is Projector augmented-wave + core cor, Zval = 17.0
     Generated using &quot;atomic&quot; code by A. Dal Corso  v.6.2.2
     Shape of augmentation charge: PSQ
     Using radial grid of 1193 points,  6 beta functions with: 
                l(1) =   0
                l(2) =   0
                l(3) =   1
                l(4) =   1
                l(5) =   2
                l(6) =   2
     Q(r) pseudized with 0 coefficients 


     PseudoPot. # 2 for Fe read from file:
     <HPC_PATH>
     MD5 check sum: fc81f059e5c5069939230b1155715ae8
     Pseudo is Projector augmented-wave + core cor, Zval = 16.0
     Generated using &quot;atomic&quot; code by A. Dal Corso  v.6.3
     Shape of augmentation charge: PSQ
     Using radial grid of 1191 points,  6 beta functions with: 
                l(1) =   0
                l(2) =   0
                l(3) =   1
                l(4) =   1
                l(5) =   2
                l(6) =   2
     Q(r) pseudized with 0 coefficients 


     PseudoPot. # 3 for Sn read from file:
     <HPC_PATH>
     MD5 check sum: 67f11dec737d427557dc41ea34975807
     Pseudo is Projector augmented-wave + core cor, Zval = 14.0
     Generated using &quot;atomic&quot; code by A. Dal Corso  v.6.3
     Shape of augmentation charge: PSQ
     Using radial grid of 1243 points,  6 beta functions with: 
                l(1) =   0
                l(2) =   0
                l(3) =   1
                l(4) =   1
                l(5) =   2
                l(6) =   2
     Q(r) pseudized with 0 coefficients 


     atomic species   valence    mass     pseudopotential
        Co            17.00    58.93300     Co( 1.00)
        Fe            16.00    55.84500     Fe( 1.00)
        Sn            14.00   118.71000     Sn( 1.00)

     Starting magnetic structure 
     atomic species   magnetization
        Co           0.500
        Fe           0.500
        Sn           0.000

     12 Sym. Ops., with inversion, found



   Cartesian axes

     site n.     atom                  positions (alat units)
         1           Fe  tau(   1) = (   1.0000000   0.5773503   0.4082483  )
         2           Sn  tau(   2) = (   0.0000000   0.0000000   0.0000000  )
         3           Co  tau(   3) = (   0.5000000   0.2886751   0.2041241  )
         4           Co  tau(   4) = (   1.5000000   0.8660254   0.6123724  )

     number of k points=    32  Gaussian smearing, width (Ry)=  0.0200
                       cart. coord. in units 2pi/alat
        k(    1) = (   0.0000000   0.0000000   0.0000000), wk =   0.0046296
        k(    2) = (   0.0000000   0.0000000   0.2041241), wk =   0.0092593
        k(    3) = (   0.0000000   0.0000000   0.4082483), wk =   0.0092593
        k(    4) = (   0.0000000   0.0000000  -0.6123724), wk =   0.0046296
        k(    5) = (   0.0000000   0.1924501  -0.0680414), wk =   0.0277778
        k(    6) = (   0.0000000   0.1924501   0.1360828), wk =   0.0277778
        k(    7) = (   0.0000000   0.1924501   0.3402069), wk =   0.0277778
        k(    8) = (   0.0000000   0.1924501  -0.6804138), wk =   0.0277778
        k(    9) = (   0.0000000   0.1924501  -0.4762897), wk =   0.0277778
        k(   10) = (   0.0000000   0.1924501  -0.2721655), wk =   0.0277778
        k(   11) = (   0.0000000   0.3849002  -0.1360828), wk =   0.0277778
        k(   12) = (   0.0000000   0.3849002   0.0680414), wk =   0.0277778
        k(   13) = (   0.0000000   0.3849002   0.2721655), wk =   0.0277778
        k(   14) = (   0.0000000   0.3849002  -0.7484552), wk =   0.0277778
        k(   15) = (   0.0000000   0.3849002  -0.5443311), wk =   0.0277778
        k(   16) = (   0.0000000   0.3849002  -0.3402069), wk =   0.0277778
        k(   17) = (   0.0000000  -0.5773503   0.2041241), wk =   0.0138889
        k(   18) = (   0.0000000  -0.5773503   0.4082483), wk =   0.0277778
        k(   19) = (   0.0000000  -0.5773503   0.6123724), wk =   0.0277778
        k(   20) = (   0.0000000  -0.5773503  -0.4082483), wk =   0.0138889
        k(   21) = (   0.1666667   0.2886751  -0.2041241), wk =   0.0555556
        k(   22) = (   0.1666667   0.2886751  -0.0000000), wk =   0.0277778
        k(   23) = (   0.1666667   0.2886751  -0.8164966), wk =   0.0555556
        k(   24) = (   0.1666667   0.2886751  -0.6123724), wk =   0.0277778
        k(   25) = (   0.1666667  -0.6735753   0.1360828), wk =   0.0555556
        k(   26) = (   0.1666667  -0.6735753   0.3402069), wk =   0.0555556
        k(   27) = (   0.1666667  -0.6735753   0.5443311), wk =   0.0555556
        k(   28) = (   0.1666667  -0.6735753  -0.4762897), wk =   0.0555556
        k(   29) = (   0.1666667  -0.6735753  -0.2721655), wk =   0.0555556
        k(   30) = (   0.1666667  -0.6735753  -0.0680414), wk =   0.0555556
        k(   31) = (   0.3333333  -0.5773503   0.0000000), wk =   0.0277778
        k(   32) = (   0.3333333  -0.5773503   0.2041241), wk =   0.0277778

     Dense  grid:    67337 G-vectors     FFT dimensions: (  60,  60,  60)

     Smooth grid:    23589 G-vectors     FFT dimensions: (  45,  45,  45)

     Estimated max dynamical RAM per process >      25.41 MB

     Estimated total dynamical RAM >     508.14 MB

     Check: negative core charge=   -0.000011
     Generating pointlists ...
     new r_m :   0.2526 (alat units)  1.9712 (a.u.) for type    1
     new r_m :   0.2526 (alat units)  1.9712 (a.u.) for type    2
     new r_m :   0.2526 (alat units)  1.9712 (a.u.) for type    3

     Initial potential from superposition of free atoms

     starting charge      63.9976, renormalised to      64.0000
     Starting wfcs are   39 randomized atomic wfcs
     Checking if some PAW data can be deallocated... 

     total cpu time spent up to now is        1.4 secs

     per-process dynamical memory:    77.7 Mb

     Self-consistent Calculation

     iteration #  1     ecut=    65.00 Ry     beta= 0.20
     Davidson diagonalization with overlap
     ethr =  1.00E-02,  avg # of iterations =  3.2

     total cpu time spent up to now is        3.9 secs

     total energy              =   -1523.37826469 Ry
     estimated scf accuracy    <       2.75914873 Ry

     total magnetization       =     8.01 Bohr mag/cell
     absolute magnetization    =     8.79 Bohr mag/cell

     iteration #  2     ecut=    65.00 Ry     beta= 0.20
     Davidson diagonalization with overlap
     ethr =  4.31E-03,  avg # of iterations =  1.1

     negative rho (up, down):  0.000E+00 6.949E-05

     total cpu time spent up to now is        5.8 secs

     total energy              =   -1524.15780114 Ry
     estimated scf accuracy    <       2.01992772 Ry

     total magnetization       =     7.45 Bohr mag/cell
     absolute magnetization    =     8.35 Bohr mag/cell

     iteration #  3     ecut=    65.00 Ry     beta= 0.20
     Davidson diagonalization with overlap
     ethr =  3.16E-03,  avg # of iterations =  1.3

     negative rho (up, down):  0.000E+00 2.457E-04

     total cpu time spent up to now is        7.8 secs

     total energy              =   -1524.50878637 Ry
     estimated scf accuracy    <       1.95756212 Ry

     total magnetization       =     7.08 Bohr mag/cell
     absolute magnetization    =     7.89 Bohr mag/cell

     iteration #  4     ecut=    65.00 Ry     beta= 0.20
     Davidson diagonalization with overlap
     ethr =  3.06E-03,  avg # of iterations =  1.1

     negative rho (up, down):  0.000E+00 2.447E-04

     total cpu time spent up to now is        9.7 secs

     total energy              =   -1524.70387777 Ry
     estimated scf accuracy    <       0.07594573 Ry

     total magnetization       =     5.62 Bohr mag/cell
     absolute magnetization    =     6.51 Bohr mag/cell

     iteration #  5     ecut=    65.00 Ry     beta= 0.20
     Davidson diagonalization with overlap
     ethr =  1.19E-04,  avg # of iterations =  6.0

     negative rho (up, down):  0.000E+00 2.264E-04

     total cpu time spent up to now is       12.9 secs

     total energy              =   -1524.72664723 Ry
     estimated scf accuracy    <       0.01754932 Ry

     total magnetization       =     5.44 Bohr mag/cell
     absolute magnetization    =     6.02 Bohr mag/cell

     iteration #  6     ecut=    65.00 Ry     beta= 0.20
     Davidson diagonalization with overlap
     ethr =  2.74E-05,  avg # of iterations =  4.0

     negative rho (up, down):  0.000E+00 1.816E-04

     total cpu time spent up to now is       15.5 secs

     total energy              =   -1524.73430227 Ry
     estimated scf accuracy    <       0.01366302 Ry

     total magnetization       =     5.20 Bohr mag/cell
     absolute magnetization    =     5.69 Bohr mag/cell

     iteration #  7     ecut=    65.00 Ry     beta= 0.20
     Davidson diagonalization with overlap
     c_bands:  1 eigenvalues not converged
     ethr =  2.13E-05,  avg # of iterations =  1.9

     negative rho (up, down):  0.000E+00 1.647E-04

     total cpu time spent up to now is       17.6 secs

     total energy              =   -1524.73686393 Ry
     estimated scf accuracy    <       0.00217277 Ry

     total magnetization       =     5.36 Bohr mag/cell
     absolute magnetization    =     5.79 Bohr mag/cell

     iteration #  8     ecut=    65.00 Ry     beta= 0.20
     Davidson diagonalization with overlap
     c_bands:  1 eigenvalues not converged
     ethr =  3.39E-06,  avg # of iterations =  6.2

     negative rho (up, down):  0.000E+00 1.515E-04

     total cpu time spent up to now is       20.6 secs

     total energy              =   -1524.73757785 Ry
     estimated scf accuracy    <       0.00275785 Ry

     total magnetization       =     5.39 Bohr mag/cell
     absolute magnetization    =     5.77 Bohr mag/cell

     iteration #  9     ecut=    65.00 Ry     beta= 0.20
     Davidson diagonalization with overlap
     ethr =  3.39E-06,  avg # of iterations =  3.4

     negative rho (up, down):  0.000E+00 1.483E-04

     total cpu time spent up to now is       23.1 secs

     total energy              =   -1524.73831568 Ry
     estimated scf accuracy    <       0.00023404 Ry

     total magnetization       =     5.31 Bohr mag/cell
     absolute magnetization    =     5.64 Bohr mag/cell

     iteration # 10     ecut=    65.00 Ry     beta= 0.20
     Davidson diagonalization with overlap
     ethr =  3.66E-07,  avg # of iterations =  5.5

     negative rho (up, down):  0.000E+00 1.512E-04

     total cpu time spent up to now is       26.3 secs

     total energy              =   -1524.73840454 Ry
     estimated scf accuracy    <       0.00015233 Ry

     total magnetization       =     5.33 Bohr mag/cell
     absolute magnetization    =     5.62 Bohr mag/cell

     iteration # 11     ecut=    65.00 Ry     beta= 0.20
     Davidson diagonalization with overlap
     ethr =  2.38E-07,  avg # of iterations =  1.7

     negative rho (up, down):  0.000E+00 1.498E-04

     total cpu time spent up to now is       28.4 secs

     total energy              =   -1524.73844218 Ry
     estimated scf accuracy    <       0.00011502 Ry

     total magnetization       =     5.35 Bohr mag/cell
     absolute magnetization    =     5.64 Bohr mag/cell

     iteration # 12     ecut=    65.00 Ry     beta= 0.20
     Davidson diagonalization with overlap
     ethr =  1.80E-07,  avg # of iterations =  3.3

     negative rho (up, down):  0.000E+00 1.514E-04

     total cpu time spent up to now is       30.9 secs

     total energy              =   -1524.73848541 Ry
     estimated scf accuracy    <       0.00002419 Ry

     total magnetization       =     5.33 Bohr mag/cell
     absolute magnetization    =     5.61 Bohr mag/cell

     iteration # 13     ecut=    65.00 Ry     beta= 0.20
     Davidson diagonalization with overlap
     ethr =  3.78E-08,  avg # of iterations =  2.7

     negative rho (up, down):  0.000E+00 1.519E-04

     total cpu time spent up to now is       33.1 secs

     total energy              =   -1524.73848954 Ry
     estimated scf accuracy    <       0.00000136 Ry

     total magnetization       =     5.33 Bohr mag/cell
     absolute magnetization    =     5.62 Bohr mag/cell

     iteration # 14     ecut=    65.00 Ry     beta= 0.20
     Davidson diagonalization with overlap
     ethr =  2.13E-09,  avg # of iterations =  8.5

     negative rho (up, down):  0.000E+00 1.536E-04

     total cpu time spent up to now is       37.2 secs

     total energy              =   -1524.73849101 Ry
     estimated scf accuracy    <       0.00000233 Ry

     total magnetization       =     5.33 Bohr mag/cell
     absolute magnetization    =     5.62 Bohr mag/cell

     iteration # 15     ecut=    65.00 Ry     beta= 0.20
     Davidson diagonalization with overlap
     ethr =  2.13E-09,  avg # of iterations =  2.2

     negative rho (up, down):  0.000E+00 1.537E-04

     total cpu time spent up to now is       39.4 secs

     total energy              =   -1524.73849133 Ry
     estimated scf accuracy    <       0.00000052 Ry

     total magnetization       =     5.33 Bohr mag/cell
     absolute magnetization    =     5.62 Bohr mag/cell

     iteration # 16     ecut=    65.00 Ry     beta= 0.20
     Davidson diagonalization with overlap
     ethr =  8.19E-10,  avg # of iterations =  3.3

     negative rho (up, down):  0.000E+00 1.538E-04

     total cpu time spent up to now is       41.9 secs

     total energy              =   -1524.73849147 Ry
     estimated scf accuracy    <       0.00000007 Ry

     total magnetization       =     5.33 Bohr mag/cell
     absolute magnetization    =     5.61 Bohr mag/cell

     iteration # 17     ecut=    65.00 Ry     beta= 0.20
     Davidson diagonalization with overlap
     ethr =  1.11E-10,  avg # of iterations =  5.5

     negative rho (up, down):  0.000E+00 1.537E-04

     total cpu time spent up to now is       44.9 secs

     total energy              =   -1524.73849153 Ry
     estimated scf accuracy    <       0.00000003 Ry

     total magnetization       =     5.33 Bohr mag/cell
     absolute magnetization    =     5.61 Bohr mag/cell

     iteration # 18     ecut=    65.00 Ry     beta= 0.20
     Davidson diagonalization with overlap
     ethr =  5.15E-11,  avg # of iterations =  2.8

     negative rho (up, down):  0.000E+00 1.539E-04

     total cpu time spent up to now is       47.3 secs

     total energy              =   -1524.73849155 Ry
     estimated scf accuracy    <       0.00000001 Ry

     total magnetization       =     5.33 Bohr mag/cell
     absolute magnetization    =     5.61 Bohr mag/cell

     iteration # 19     ecut=    65.00 Ry     beta= 0.20
     Davidson diagonalization with overlap
     ethr =  2.03E-11,  avg # of iterations =  3.5

     negative rho (up, down):  0.000E+00 1.540E-04
 
     Magnetic moment per site  (integrated on atomic sphere of radius R)
     atom   1 (R=0.253)  charge= 14.4759  magn=  2.8201
     atom   2 (R=0.253)  charge= 11.1692  magn= -0.0081
     atom   3 (R=0.253)  charge= 15.8024  magn=  1.2938
     atom   4 (R=0.253)  charge= 15.8024  magn=  1.2938

     total cpu time spent up to now is       49.9 secs

     End of self-consistent calculation

 ------ SPIN UP ------------


          k = 0.0000 0.0000 0.0000 (  2975 PWs)   bands (ev):

   -76.5611 -76.5550 -69.9028 -39.8559 -39.8559 -39.8559 -39.8321 -39.8321
   -39.8321 -35.9435 -35.9435 -35.9435  -2.2835  -2.2835  -2.2835  -2.2241
    -2.2241   7.3712  14.7394  14.7394  14.9308  14.9308  14.9308  15.6455
    15.6455  15.6455  17.2133  17.2133  17.7718  17.7718  17.8369  17.8369
    17.8369  22.9778  23.2578  23.2578  23.2578  24.2660

          k = 0.0000 0.0000 0.2041 (  2948 PWs)   bands (ev):

   -76.5607 -76.5554 -69.9028 -39.8548 -39.8545 -39.8545 -39.8331 -39.8331
   -39.8327 -35.9435 -35.9432 -35.9432  -2.2839  -2.2800  -2.2800  -2.2214
    -2.2214   7.7438  14.4869  14.4869  14.5041  15.3547  15.3547  15.5625
    15.6306  15.6306  17.1820  17.1820  17.4806  17.5504  17.5504  17.8768
    17.8768  20.8486  22.6804  22.6804  23.1173  24.4291

          k = 0.0000 0.0000 0.4082 (  2974 PWs)   bands (ev):

   -76.5596 -76.5565 -69.9029 -39.8509 -39.8501 -39.8501 -39.8381 -39.8379
   -39.8379 -35.9445 -35.9431 -35.9431  -2.2860  -2.2745  -2.2745  -2.2155
    -2.2155   8.7823  13.0913  14.3509  14.3509  15.4645  15.4904  15.4904
    16.0111  16.0111  17.0669  17.0669  17.1392  17.3042  17.3042  17.7510
    17.7510  18.8880  22.2803  22.2803  22.8684  23.5734

          k = 0.0000 0.0000-0.6124 (  2938 PWs)   bands (ev):

   -76.5580 -76.5580 -69.9028 -39.8447 -39.8445 -39.8445 -39.8435 -39.8430
   -39.8430 -35.9444 -35.9427 -35.9427  -2.2865  -2.2718  -2.2718  -2.2117
    -2.2117   9.7747  11.8203  14.3222  14.3222  15.4775  15.4775  15.5162
    16.2873  16.2873  16.9804  16.9804  17.1564  17.2465  17.2465  17.6125
    17.6125  18.0114  22.2698  22.2698  22.8167  23.0482

          k = 0.0000 0.1925-0.0680 (  2948 PWs)   bands (ev):

   -76.5607 -76.5554 -69.9028 -39.8548 -39.8546 -39.8545 -39.8331 -39.8331
   -39.8327 -35.9435 -35.9432 -35.9432  -2.2839  -2.2800  -2.2800  -2.2214
    -2.2214   7.7438  14.4869  14.4869  14.5041  15.3547  15.3547  15.5625
    15.6306  15.6307  17.1820  17.1820  17.4806  17.5504  17.5504  17.8768
    17.8768  20.8486  22.6804  22.6804  23.1173  24.4291

          k = 0.0000 0.1925 0.1361 (  2962 PWs)   bands (ev):

   -76.5606 -76.5555 -69.9028 -39.8573 -39.8573 -39.8485 -39.8390 -39.8308
   -39.8308 -35.9438 -35.9432 -35.9432  -2.2892  -2.2765  -2.2765  -2.2242
    -2.2184   7.8652  13.9061  14.8995  15.1024  15.1024  15.3178  15.3971
    15.6874  15.6874  17.0509  17.2575  17.4476  17.5038  17.5038  17.7632
    17.9212  21.3564  21.3678  21.3678  23.4240  23.5032

          k = 0.0000 0.1925 0.3402 (  2969 PWs)   bands (ev):

   -76.5598 -76.5563 -69.9029 -39.8566 -39.8563 -39.8467 -39.8414 -39.8319
   -39.8317 -35.9444 -35.9432 -35.9429  -2.2912  -2.2721  -2.2703  -2.2232
    -2.2123   8.6745  13.3304  14.5417  14.7532  15.2824  15.4691  15.6238
    15.8139  15.9055  16.8845  17.0797  17.2299  17.2417  17.3193  17.7125
    17.8908  19.3834  20.5298  20.5388  22.8874  24.6663

          k = 0.0000 0.1925-0.6804 (  2965 PWs)   bands (ev):

   -76.5585 -76.5575 -69.9029 -39.8535 -39.8520 -39.8519 -39.8367 -39.8360
   -39.8349 -35.9444 -35.9433 -35.9428  -2.2867  -2.2729  -2.2678  -2.2185
    -2.2095   9.8014  12.2993  14.0486  14.5450  15.3337  15.4731  15.5857
    16.2534  16.3311  16.8042  16.8147  17.0839  17.1635  17.3578  17.6899
    17.7008  18.1192  19.9806  20.4031  22.7209  25.3061

          k = 0.0000 0.1925-0.4763 (  2987 PWs)   bands (ev):

   -76.5589 -76.5571 -69.9029 -39.8579 -39.8459 -39.8456 -39.8436 -39.8424
   -39.8308 -35.9445 -35.9435 -35.9431  -2.2836  -2.2752  -2.2708  -2.2155
    -2.2139   9.4573  12.6983  14.1957  14.3439  15.2818  15.4401  15.6487
    16.1655  16.2683  16.7526  16.9033  17.0284  17.2201  17.2337  17.6899
    17.9362  18.4575  19.8699  21.0561  22.8095  25.0189

          k = 0.0000 0.1925-0.2722 (  2962 PWs)   bands (ev):

   -76.5601 -76.5560 -69.9028 -39.8583 -39.8499 -39.8492 -39.8387 -39.8381
   -39.8298 -35.9439 -35.9432 -35.9432  -2.2849  -2.2769  -2.2753  -2.2196
    -2.2172   8.3382  13.7697  14.2795  14.8928  15.1431  15.5075  15.5096
    15.7687  15.8222  16.9881  17.2324  17.2370  17.2658  17.3393  17.7035
    18.0150  20.1537  20.2235  22.2952  23.1740  25.1632

          k = 0.0000 0.3849-0.1361 (  2974 PWs)   bands (ev):

   -76.5596 -76.5565 -69.9029 -39.8509 -39.8501 -39.8501 -39.8381 -39.8379
   -39.8379 -35.9445 -35.9431 -35.9431  -2.2860  -2.2745  -2.2745  -2.2155
    -2.2155   8.7823  13.0913  14.3509  14.3509  15.4645  15.4904  15.4904
    16.0111  16.0111  17.0669  17.0669  17.1392  17.3042  17.3042  17.7511
    17.7511  18.8880  22.2803  22.2803  22.8684  23.5734

          k = 0.0000 0.3849 0.0680 (  2969 PWs)   bands (ev):

   -76.5598 -76.5563 -69.9029 -39.8566 -39.8563 -39.8467 -39.8414 -39.8319
   -39.8317 -35.9444 -35.9432 -35.9429  -2.2912  -2.2721  -2.2703  -2.2232
    -2.2123   8.6745  13.3304  14.5417  14.7532  15.2824  15.4691  15.6238
    15.8139  15.9055  16.8845  17.0797  17.2299  17.2417  17.3193  17.7125
    17.8908  19.3834  20.5298  20.5388  22.8874  24.6663

          k = 0.0000 0.3849 0.2722 (  2974 PWs)   bands (ev):

   -76.5595 -76.5565 -69.9029 -39.8595 -39.8595 -39.8549 -39.8336 -39.8289
   -39.8289 -35.9452 -35.9427 -35.9427  -2.3012  -2.2630  -2.2630  -2.2307
    -2.2066   9.1918  12.9163  14.8304  15.3435  15.3909  15.4945  15.4945
    15.8644  15.8644  16.6004  17.0360  17.0360  17.1649  17.3030  17.7471
    17.7671  18.9556  19.2534  19.2534  22.3748  23.0303

          k = 0.0000 0.3849-0.7485 (  2965 PWs)   bands (ev):

   -76.5589 -76.5571 -69.9029 -39.8600 -39.8583 -39.8580 -39.8305 -39.8302
   -39.8283 -35.9450 -35.9429 -35.9426  -2.2996  -2.2625  -2.2599  -2.2306
    -2.2039  10.0445  12.6722  14.1261  15.0278  15.1711  15.5348  15.7505
    15.9648  16.1693  16.6878  16.8834  16.9562  17.0590  17.4076  17.6343
    17.8186  18.2066  18.4490  18.7328  22.5238  24.1205

          k = 0.0000 0.3849-0.5443 (  2970 PWs)   bands (ev):

   -76.5580 -76.5580 -69.9029 -39.8609 -39.8532 -39.8529 -39.8359 -39.8349
   -39.8276 -35.9443 -35.9436 -35.9427  -2.2872  -2.2719  -2.2633  -2.2234
    -2.2080  10.2188  13.0245  13.2429  14.6895  15.0272  15.4266  15.9065
    16.0690  16.4979  16.6249  16.7108  16.9416  17.0877  17.2257  17.9176
    18.0119  18.0536  18.4706  19.3475  22.6000  27.0635

          k = 0.0000 0.3849-0.3402 (  2987 PWs)   bands (ev):

   -76.5589 -76.5571 -69.9029 -39.8579 -39.8459 -39.8456 -39.8436 -39.8424
   -39.8308 -35.9445 -35.9435 -35.9431  -2.2836  -2.2752  -2.2708  -2.2155
    -2.2139   9.4573  12.6983  14.1957  14.3439  15.2818  15.4401  15.6487
    16.1655  16.2683  16.7526  16.9033  17.0284  17.2201  17.2337  17.6899
    17.9363  18.4575  19.8699  21.0561  22.8095  25.2298

          k = 0.0000-0.5774 0.2041 (  2938 PWs)   bands (ev):

   -76.5580 -76.5580 -69.9028 -39.8447 -39.8445 -39.8445 -39.8435 -39.8430
   -39.8430 -35.9444 -35.9427 -35.9427  -2.2865  -2.2718  -2.2718  -2.2117
    -2.2117   9.7747  11.8203  14.3222  14.3222  15.4775  15.4775  15.5162
    16.2873  16.2873  16.9804  16.9804  17.1564  17.2465  17.2465  17.6125
    17.6125  18.0114  22.2698  22.2698  22.8167  23.0482

          k = 0.0000-0.5774 0.4082 (  2965 PWs)   bands (ev):

   -76.5585 -76.5575 -69.9029 -39.8535 -39.8520 -39.8519 -39.8367 -39.8360
   -39.8349 -35.9444 -35.9433 -35.9428  -2.2867  -2.2729  -2.2678  -2.2185
    -2.2095   9.8014  12.2993  14.0486  14.5450  15.3337  15.4731  15.5858
    16.2534  16.3311  16.8042  16.8147  17.0839  17.1635  17.3578  17.6899
    17.7008  18.1192  19.9806  20.4031  22.7209  25.3061

          k = 0.0000-0.5774 0.6124 (  2965 PWs)   bands (ev):

   -76.5589 -76.5571 -69.9029 -39.8600 -39.8583 -39.8580 -39.8305 -39.8302
   -39.8283 -35.9450 -35.9429 -35.9426  -2.2996  -2.2625  -2.2599  -2.2306
    -2.2039  10.0445  12.6722  14.1261  15.0278  15.1711  15.5348  15.7505
    15.9648  16.1693  16.6878  16.8834  16.9562  17.0590  17.4076  17.6343
    17.8186  18.2066  18.4490  18.7328  22.5238  24.1205

          k = 0.0000-0.5774-0.4082 (  2954 PWs)   bands (ev):

   -76.5590 -76.5570 -69.9029 -39.8616 -39.8605 -39.8605 -39.8280 -39.8280
   -39.8260 -35.9453 -35.9425 -35.9425  -2.3073  -2.2563  -2.2563  -2.2361
    -2.2006  10.2862  12.4162  14.5413  14.8643  15.6721  15.6721  15.8905
    16.0367  16.0368  16.0496  16.9560  17.1486  17.1486  17.3617  17.6090
    17.7391  18.0545  18.0546  18.1858  22.2347  22.9251

          k = 0.1667 0.2887-0.2041 (  2969 PWs)   bands (ev):

   -76.5598 -76.5563 -69.9029 -39.8566 -39.8563 -39.8467 -39.8414 -39.8319
   -39.8317 -35.9444 -35.9432 -35.9429  -2.2912  -2.2721  -2.2703  -2.2232
    -2.2123   8.6745  13.3304  14.5417  14.7532  15.2824  15.4691  15.6238
    15.8139  15.9055  16.8845  17.0797  17.2299  17.2417  17.3193  17.7125
    17.8908  19.3834  20.5298  20.5388  22.8874  24.6662

          k = 0.1667 0.2887-0.0000 (  2962 PWs)   bands (ev):

   -76.5601 -76.5560 -69.9028 -39.8583 -39.8499 -39.8492 -39.8387 -39.8381
   -39.8298 -35.9439 -35.9432 -35.9432  -2.2849  -2.2769  -2.2753  -2.2196
    -2.2172   8.3382  13.7697  14.2795  14.8928  15.1431  15.5075  15.5096
    15.7687  15.8222  16.9881  17.2324  17.2370  17.2658  17.3393  17.7035
    18.0150  20.1537  20.2235  22.2952  23.1740  25.1632

          k = 0.1667 0.2887-0.8165 (  2976 PWs)   bands (ev):

   -76.5590 -76.5570 -69.9029 -39.8602 -39.8541 -39.8517 -39.8371 -39.8343
   -39.8283 -35.9446 -35.9433 -35.9429  -2.2908  -2.2718  -2.2638  -2.2242
    -2.2085   9.5535  12.9328  14.2014  14.5799  15.2080  15.5705  15.7681
    15.8544  16.2361  16.6736  16.8840  16.9647  17.2234  17.2587  17.7211
    17.9365  18.8009  18.9318  19.3851  23.9137  24.6946

          k = 0.1667 0.2887-0.6124 (  2988 PWs)   bands (ev):

   -76.5580 -76.5580 -69.9030 -39.8601 -39.8582 -39.8449 -39.8445 -39.8295
   -39.8295 -35.9442 -35.9439 -35.9430  -2.2827  -2.2797  -2.2606  -2.2237
    -2.2079  10.2285  12.7307  13.6188  14.5695  15.1337  15.5936  15.6439
    16.0729  16.5329  16.6089  16.6942  16.9680  17.1915  17.3602  17.7443
    17.8024  18.0736  18.7930  18.8585  24.1364  24.7493

          k = 0.1667-0.6736 0.1361 (  2965 PWs)   bands (ev):

   -76.5585 -76.5575 -69.9029 -39.8535 -39.8520 -39.8519 -39.8367 -39.8360
   -39.8349 -35.9444 -35.9433 -35.9428  -2.2867  -2.2729  -2.2678  -2.2185
    -2.2095   9.8014  12.2993  14.0486  14.5450  15.3337  15.4731  15.5858
    16.2534  16.3311  16.8042  16.8147  17.0839  17.1635  17.3578  17.6899
    17.7008  18.1192  19.9806  20.4031  22.7209  25.3061

          k = 0.1667-0.6736 0.3402 (  2987 PWs)   bands (ev):

   -76.5589 -76.5571 -69.9029 -39.8579 -39.8459 -39.8456 -39.8436 -39.8424
   -39.8308 -35.9445 -35.9435 -35.9431  -2.2836  -2.2752  -2.2708  -2.2155
    -2.2139   9.4573  12.6983  14.1957  14.3439  15.2818  15.4401  15.6487
    16.1655  16.2683  16.7527  16.9033  17.0284  17.2201  17.2337  17.6899
    17.9363  18.4575  19.8699  21.0561  22.8095  25.2297

          k = 0.1667-0.6736 0.5443 (  2976 PWs)   bands (ev):

   -76.5590 -76.5570 -69.9029 -39.8602 -39.8541 -39.8517 -39.8371 -39.8343
   -39.8283 -35.9446 -35.9433 -35.9429  -2.2908  -2.2718  -2.2638  -2.2242
    -2.2085   9.5535  12.9328  14.2014  14.5799  15.2080  15.5706  15.7681
    15.8544  16.2361  16.6736  16.8840  16.9647  17.2234  17.2587  17.7212
    17.9365  18.8009  18.9318  19.3851  23.9137  24.6946

          k = 0.1667-0.6736-0.4763 (  2965 PWs)   bands (ev):

   -76.5589 -76.5571 -69.9029 -39.8600 -39.8583 -39.8580 -39.8305 -39.8302
   -39.8283 -35.9450 -35.9429 -35.9426  -2.2996  -2.2625  -2.2599  -2.2306
    -2.2039  10.0445  12.6722  14.1261  15.0278  15.1711  15.5348  15.7505
    15.9648  16.1693  16.6878  16.8834  16.9562  17.0590  17.4076  17.6343
    17.8186  18.2066  18.4490  18.7328  22.5238  24.1205

          k = 0.1667-0.6736-0.2722 (  2982 PWs)   bands (ev):

   -76.5585 -76.5575 -69.9030 -39.8624 -39.8603 -39.8526 -39.8364 -39.8278
   -39.8269 -35.9449 -35.9434 -35.9427  -2.2947  -2.2692  -2.2565  -2.2302
    -2.2043  10.3931  12.8389  13.8612  14.4590  15.2960  15.5959  15.6978
    15.8946  16.2879  16.6749  16.7236  17.1175  17.2497  17.4614  17.4691
    17.8476  18.1017  18.1681  18.1927  23.6883  24.4405

          k = 0.1667-0.6736-0.0680 (  2988 PWs)   bands (ev):

   -76.5580 -76.5580 -69.9030 -39.8601 -39.8582 -39.8449 -39.8445 -39.8295
   -39.8295 -35.9442 -35.9439 -35.9430  -2.2827  -2.2797  -2.2606  -2.2237
    -2.2079  10.2285  12.7307  13.6188  14.5695  15.1337  15.5936  15.6439
    16.0729  16.5329  16.6089  16.6942  16.9680  17.1915  17.3602  17.7443
    17.8024  18.0736  18.7930  18.8585  24.1364  24.7493

          k = 0.3333-0.5774 0.0000 (  2970 PWs)   bands (ev):

   -76.5580 -76.5580 -69.9029 -39.8609 -39.8532 -39.8529 -39.8359 -39.8349
   -39.8276 -35.9443 -35.9436 -35.9427  -2.2872  -2.2719  -2.2633  -2.2234
    -2.2080  10.2188  13.0245  13.2429  14.6895  15.0272  15.4266  15.9065
    16.0690  16.4979  16.6249  16.7108  16.9416  17.0877  17.2257  17.9176
    18.0119  18.0536  18.4706  19.3475  22.6000  27.0635

          k = 0.3333-0.5774 0.2041 (  2988 PWs)   bands (ev):

   -76.5580 -76.5580 -69.9030 -39.8601 -39.8582 -39.8449 -39.8445 -39.8295
   -39.8295 -35.9442 -35.9439 -35.9430  -2.2827  -2.2797  -2.2606  -2.2237
    -2.2079  10.2285  12.7307  13.6188  14.5695  15.1337  15.5936  15.6439
    16.0729  16.5329  16.6089  16.6942  16.9680  17.1915  17.3602  17.7443
    17.8024  18.0736  18.7930  18.8585  24.1364  24.7493

 ------ SPIN DOWN ----------


          k = 0.0000 0.0000 0.0000 (  2975 PWs)   bands (ev):

   -75.0187 -75.0121 -66.6500 -38.3562 -38.3562 -38.3562 -38.3302 -38.3302
   -38.3302 -32.7694 -32.7694 -32.7694  -2.2848  -2.2848  -2.2848  -2.2306
    -2.2306   7.4385  15.4997  15.4997  15.4997  16.4298  16.4298  17.3924
    17.3924  17.3924  18.9839  18.9839  18.9839  19.6155  19.6155  20.0802
    20.0802  23.3100  23.6431  23.6432  23.6432  25.0333

          k = 0.0000 0.0000 0.2041 (  2948 PWs)   bands (ev):

   -75.0182 -75.0126 -66.6499 -38.3549 -38.3548 -38.3548 -38.3313 -38.3313
   -38.3310 -32.7693 -32.7691 -32.7691  -2.2852  -2.2814  -2.2814  -2.2281
    -2.2281   7.8097  14.9498  15.4722  15.4722  16.6181  16.6181  17.2307
    17.3364  17.3364  18.4645  18.7539  18.7539  19.6599  19.6599  20.0120
    20.0120  21.9751  23.4345  23.4345  23.4830  24.8639

          k = 0.0000 0.0000 0.4082 (  2974 PWs)   bands (ev):

   -75.0170 -75.0138 -66.6501 -38.3505 -38.3499 -38.3499 -38.3370 -38.3365
   -38.3365 -32.7705 -32.7690 -32.7690  -2.2875  -2.2759  -2.2759  -2.2225
    -2.2225   8.8432  13.3406  15.4616  15.4616  16.8921  16.9186  16.9186
    17.3114  17.3114  18.0625  18.3568  18.3568  19.6190  19.6190  19.9127
    19.9127  20.4795  23.1682  23.2870  23.2870  24.1501

          k = 0.0000 0.0000-0.6124 (  2938 PWs)   bands (ev):

   -75.0154 -75.0153 -66.6499 -38.3440 -38.3436 -38.3436 -38.3429 -38.3423
   -38.3423 -32.7705 -32.7686 -32.7686  -2.2880  -2.2733  -2.2733  -2.2188
    -2.2188   9.8182  12.0216  15.4681  15.4681  16.8520  17.0191  17.0191
    17.3656  17.3656  17.9534  18.1743  18.1743  19.5559  19.5559  19.8185
    19.8717  19.8717  23.1404  23.4055  23.4055  23.6567

          k = 0.0000 0.1925-0.0680 (  2948 PWs)   bands (ev):

   -75.0182 -75.0126 -66.6499 -38.3549 -38.3548 -38.3548 -38.3313 -38.3313
   -38.3310 -32.7693 -32.7691 -32.7691  -2.2852  -2.2814  -2.2814  -2.2281
    -2.2281   7.8097  14.9498  15.4722  15.4722  16.6181  16.6181  17.2308
    17.3363  17.3364  18.4645  18.7538  18.7539  19.6598  19.6599  20.0120
    20.0120  21.9751  23.4345  23.4345  23.4830  24.8639

          k = 0.0000 0.1925 0.1361 (  2962 PWs)   bands (ev):

   -75.0181 -75.0127 -66.6500 -38.3576 -38.3576 -38.3483 -38.3378 -38.3289
   -38.3288 -32.7697 -32.7691 -32.7691  -2.2906  -2.2778  -2.2778  -2.2310
    -2.2251   7.9314  14.7099  15.6351  15.6351  16.5931  16.6004  17.0038
    17.4085  17.4085  18.5353  18.5354  18.6797  19.6051  19.6902  19.8939
    20.0520  21.9938  22.3843  22.3843  24.0797  24.4117

          k = 0.0000 0.1925 0.3402 (  2969 PWs)   bands (ev):

   -75.0172 -75.0135 -66.6500 -38.3568 -38.3565 -38.3462 -38.3405 -38.3301
   -38.3299 -32.7704 -32.7691 -32.7688  -2.2926  -2.2734  -2.2716  -2.2303
    -2.2191   8.7408  13.8542  15.3108  15.6982  16.6105  16.8362  16.8378
    17.3194  17.4522  18.0813  18.1676  18.5721  19.5830  19.6795  19.7372
    19.9760  20.8278  21.5145  21.6743  23.6667  25.3730

          k = 0.0000 0.1925-0.6804 (  2965 PWs)   bands (ev):

   -75.0159 -75.0148 -66.6501 -38.3535 -38.3518 -38.3518 -38.3352 -38.3347
   -38.3334 -32.7705 -32.7693 -32.7687  -2.2882  -2.2743  -2.2692  -2.2256
    -2.2166   9.8690  12.5235  14.9027  15.6271  16.4725  16.9700  17.0871
    17.3909  17.5206  17.9998  18.0141  18.2989  19.5455  19.5819  19.7395
    19.8403  19.8776  21.2646  21.5675  23.4364  25.7796

          k = 0.0000 0.1925-0.4763 (  2987 PWs)   bands (ev):

   -75.0163 -75.0144 -66.6502 -38.3582 -38.3451 -38.3450 -38.3427 -38.3416
   -38.3290 -32.7706 -32.7694 -32.7690  -2.2851  -2.2767  -2.2721  -2.2224
    -2.2211   9.5224  12.9666  14.8972  15.4803  16.5303  17.0264  17.0961
    17.2938  17.5178  17.9726  18.1738  18.2485  19.5412  19.7152  19.7382
    19.8503  20.1355  21.2192  22.0985  23.3606  25.7767

          k = 0.0000 0.1925-0.2722 (  2962 PWs)   bands (ev):

   -75.0175 -75.0132 -66.6500 -38.3587 -38.3496 -38.3490 -38.3373 -38.3370
   -38.3278 -32.7699 -32.7691 -32.7691  -2.2863  -2.2782  -2.2767  -2.2267
    -2.2239   8.4029  14.2747  15.3834  15.3943  16.6183  16.9129  16.9765
    17.1699  17.4792  18.1751  18.3103  18.5975  19.5855  19.7922  19.8705
    19.9403  21.4389  21.5518  23.0491  23.4611  25.7599

          k = 0.0000 0.3849-0.1361 (  2974 PWs)   bands (ev):

   -75.0170 -75.0138 -66.6501 -38.3505 -38.3499 -38.3499 -38.3370 -38.3365
   -38.3365 -32.7705 -32.7690 -32.7690  -2.2875  -2.2759  -2.2759  -2.2225
    -2.2225   8.8432  13.3406  15.4616  15.4616  16.8921  16.9186  16.9186
    17.3114  17.3114  18.0625  18.3567  18.3567  19.6190  19.6190  19.9127
    19.9127  20.4795  23.1682  23.2869  23.2870  24.1501

          k = 0.0000 0.3849 0.0680 (  2969 PWs)   bands (ev):

   -75.0172 -75.0135 -66.6500 -38.3568 -38.3565 -38.3462 -38.3405 -38.3301
   -38.3299 -32.7704 -32.7691 -32.7688  -2.2926  -2.2734  -2.2716  -2.2303
    -2.2191   8.7408  13.8542  15.3108  15.6982  16.6105  16.8362  16.8378
    17.3194  17.4522  18.0814  18.1676  18.5721  19.5830  19.6795  19.7372
    19.9760  20.8278  21.5145  21.6744  23.6667  25.3730

          k = 0.0000 0.3849 0.2722 (  2974 PWs)   bands (ev):

   -75.0170 -75.0138 -66.6501 -38.3598 -38.3598 -38.3551 -38.3320 -38.3271
   -38.3270 -32.7712 -32.7687 -32.7687  -2.3026  -2.2643  -2.2643  -2.2378
    -2.2134   9.2719  13.4742  15.9798  15.9798  16.1706  16.1723  17.0292
    17.3892  17.3892  17.9643  17.9643  18.5857  19.4293  19.5753  19.5852
    19.9784  20.4246  20.6191  20.6191  23.1953  24.1210

          k = 0.0000 0.3849-0.7485 (  2965 PWs)   bands (ev):

   -75.0163 -75.0144 -66.6501 -38.3606 -38.3584 -38.3583 -38.3287 -38.3284
   -38.3262 -32.7710 -32.7689 -32.7686  -2.3009  -2.2637  -2.2612  -2.2377
    -2.2110  10.1643  12.9959  14.6661  15.8543  15.9974  16.9153  17.0467
    17.3195  17.5960  17.8091  17.8979  18.5337  19.3945  19.4797  19.6343
    19.8674  19.9465  20.1784  20.2196  23.4082  24.9763

          k = 0.0000 0.3849-0.5443 (  2970 PWs)   bands (ev):

   -75.0154 -75.0153 -66.6501 -38.3616 -38.3530 -38.3529 -38.3344 -38.3335
   -38.3255 -32.7703 -32.7697 -32.7686  -2.2886  -2.2732  -2.2645  -2.2304
    -2.2153  10.3298  13.3479  13.5281  15.7311  16.0385  16.9927  17.3461
    17.3942  17.5787  17.9228  18.0124  18.2174  19.4276  19.5875  19.6803
    19.8458  20.0601  20.1212  20.6683  23.4396  27.6470

          k = 0.0000 0.3849-0.3402 (  2987 PWs)   bands (ev):

   -75.0163 -75.0144 -66.6502 -38.3582 -38.3451 -38.3450 -38.3427 -38.3416
   -38.3290 -32.7706 -32.7694 -32.7690  -2.2851  -2.2766  -2.2721  -2.2224
    -2.2211   9.5224  12.9666  14.8972  15.4803  16.5303  17.0264  17.0960
    17.2938  17.5178  17.9726  18.1738  18.2484  19.5412  19.7152  19.7382
    19.8503  20.1355  21.2192  22.0985  23.3606  25.7767

          k = 0.0000-0.5774 0.2041 (  2938 PWs)   bands (ev):

   -75.0154 -75.0153 -66.6499 -38.3440 -38.3436 -38.3436 -38.3429 -38.3423
   -38.3423 -32.7705 -32.7686 -32.7686  -2.2880  -2.2733  -2.2733  -2.2188
    -2.2188   9.8182  12.0216  15.4681  15.4681  16.8521  17.0191  17.0191
    17.3656  17.3656  17.9534  18.1742  18.1742  19.5559  19.5559  19.8186
    19.8717  19.8717  23.1404  23.4055  23.4055  23.6567

          k = 0.0000-0.5774 0.4082 (  2965 PWs)   bands (ev):

   -75.0159 -75.0148 -66.6501 -38.3535 -38.3518 -38.3518 -38.3352 -38.3347
   -38.3334 -32.7705 -32.7693 -32.7687  -2.2882  -2.2743  -2.2692  -2.2256
    -2.2166   9.8690  12.5235  14.9027  15.6271  16.4725  16.9700  17.0871
    17.3909  17.5206  17.9998  18.0141  18.2990  19.5455  19.5819  19.7395
    19.8404  19.8776  21.2646  21.5675  23.4364  25.7796

          k = 0.0000-0.5774 0.6124 (  2965 PWs)   bands (ev):

   -75.0163 -75.0144 -66.6501 -38.3606 -38.3584 -38.3583 -38.3287 -38.3284
   -38.3262 -32.7710 -32.7689 -32.7686  -2.3009  -2.2637  -2.2612  -2.2377
    -2.2110  10.1643  12.9959  14.6661  15.8543  15.9974  16.9153  17.0467
    17.3195  17.5960  17.8091  17.8979  18.5337  19.3945  19.4797  19.6343
    19.8674  19.9465  20.1784  20.2196  23.4082  24.9763

          k = 0.0000-0.5774-0.4082 (  2954 PWs)   bands (ev):

   -75.0164 -75.0143 -66.6500 -38.3627 -38.3608 -38.3608 -38.3260 -38.3260
   -38.3237 -32.7713 -32.7685 -32.7685  -2.3087  -2.2575  -2.2575  -2.2431
    -2.2076  10.4593  12.6121  15.4474  15.7880  16.2262  16.2262  17.2355
    17.2356  17.3311  17.9188  17.9188  18.6278  19.1074  19.4659  19.5754
    19.8280  19.8280  19.8747  20.0826  23.0928  24.0763

          k = 0.1667 0.2887-0.2041 (  2969 PWs)   bands (ev):

   -75.0172 -75.0135 -66.6500 -38.3568 -38.3565 -38.3462 -38.3405 -38.3301
   -38.3299 -32.7704 -32.7691 -32.7688  -2.2926  -2.2734  -2.2716  -2.2303
    -2.2191   8.7408  13.8542  15.3108  15.6982  16.6105  16.8362  16.8378
    17.3194  17.4522  18.0814  18.1676  18.5721  19.5830  19.6795  19.7372
    19.9760  20.8278  21.5145  21.6743  23.6667  25.3730

          k = 0.1667 0.2887-0.0000 (  2962 PWs)   bands (ev):

   -75.0175 -75.0132 -66.6500 -38.3587 -38.3496 -38.3490 -38.3373 -38.3370
   -38.3278 -32.7699 -32.7691 -32.7691  -2.2863  -2.2781  -2.2767  -2.2267
    -2.2239   8.4029  14.2747  15.3834  15.3943  16.6183  16.9129  16.9765
    17.1699  17.4792  18.1751  18.3103  18.5975  19.5855  19.7922  19.8705
    19.9403  21.4389  21.5518  23.0491  23.4611  25.7599

          k = 0.1667 0.2887-0.8165 (  2976 PWs)   bands (ev):

   -75.0164 -75.0143 -66.6501 -38.3606 -38.3542 -38.3514 -38.3357 -38.3328
   -38.3263 -32.7706 -32.7692 -32.7689  -2.2921  -2.2732  -2.2650  -2.2314
    -2.2155   9.6334  13.3620  14.7048  15.4391  16.4217  16.9615  17.0727
    17.2168  17.6710  17.8658  17.9856  18.4545  19.5486  19.5827  19.7052
    19.8816  20.3091  20.4793  20.7674  24.4595  25.4484

          k = 0.1667 0.2887-0.6124 (  2988 PWs)   bands (ev):

   -75.0154 -75.0154 -66.6502 -38.3604 -38.3588 -38.3440 -38.3437 -38.3276
   -38.3275 -32.7702 -32.7699 -32.7690  -2.2841  -2.2810  -2.2618  -2.2307
    -2.2151  10.3391  12.9711  14.1197  15.2936  16.3057  17.0775  17.0967
    17.3997  17.6851  17.9175  17.9338  18.3121  19.5172  19.5537  19.6524
    19.8208  19.8725  20.3595  20.4051  24.6353  25.5863

          k = 0.1667-0.6736 0.1361 (  2965 PWs)   bands (ev):

   -75.0159 -75.0148 -66.6501 -38.3535 -38.3518 -38.3518 -38.3352 -38.3347
   -38.3334 -32.7705 -32.7693 -32.7687  -2.2882  -2.2743  -2.2692  -2.2256
    -2.2166   9.8690  12.5235  14.9027  15.6271  16.4725  16.9700  17.0871
    17.3909  17.5206  17.9998  18.0141  18.2989  19.5455  19.5819  19.7395
    19.8404  19.8776  21.2646  21.5675  23.4365  25.7796

          k = 0.1667-0.6736 0.3402 (  2987 PWs)   bands (ev):

   -75.0163 -75.0144 -66.6502 -38.3582 -38.3451 -38.3450 -38.3427 -38.3416
   -38.3290 -32.7706 -32.7694 -32.7690  -2.2851  -2.2766  -2.2721  -2.2224
    -2.2211   9.5224  12.9666  14.8972  15.4803  16.5303  17.0264  17.0960
    17.2938  17.5178  17.9726  18.1738  18.2484  19.5412  19.7152  19.7382
    19.8503  20.1355  21.2192  22.0985  23.3606  25.7766

          k = 0.1667-0.6736 0.5443 (  2976 PWs)   bands (ev):

   -75.0164 -75.0143 -66.6501 -38.3606 -38.3542 -38.3514 -38.3357 -38.3328
   -38.3263 -32.7706 -32.7692 -32.7689  -2.2921  -2.2732  -2.2650  -2.2314
    -2.2155   9.6334  13.3620  14.7048  15.4391  16.4217  16.9615  17.0727
    17.2168  17.6710  17.8658  17.9856  18.4545  19.5486  19.5827  19.7052
    19.8816  20.3092  20.4793  20.7674  24.4595  25.4484

          k = 0.1667-0.6736-0.4763 (  2965 PWs)   bands (ev):

   -75.0163 -75.0144 -66.6501 -38.3606 -38.3584 -38.3583 -38.3287 -38.3284
   -38.3262 -32.7710 -32.7689 -32.7686  -2.3009  -2.2638  -2.2612  -2.2377
    -2.2110  10.1643  12.9959  14.6661  15.8543  15.9974  16.9153  17.0467
    17.3195  17.5960  17.8091  17.8980  18.5337  19.3945  19.4797  19.6343
    19.8674  19.9465  20.1784  20.2196  23.4082  24.9763

          k = 0.1667-0.6736-0.2722 (  2982 PWs)   bands (ev):

   -75.0159 -75.0148 -66.6502 -38.3630 -38.3609 -38.3523 -38.3350 -38.3258
   -38.3247 -32.7709 -32.7694 -32.7687  -2.2961  -2.2704  -2.2576  -2.2372
    -2.2114  10.5519  13.0829  14.3605  14.8282  16.4137  17.0563  17.0812
    17.2988  17.6846  17.7905  17.8991  18.4705  19.4438  19.5322  19.6426
    19.7772  19.8802  19.9255  19.9639  24.3664  25.2889

          k = 0.1667-0.6736-0.0680 (  2988 PWs)   bands (ev):

   -75.0154 -75.0154 -66.6502 -38.3604 -38.3588 -38.3440 -38.3437 -38.3276
   -38.3275 -32.7702 -32.7699 -32.7690  -2.2841  -2.2810  -2.2618  -2.2307
    -2.2151  10.3391  12.9711  14.1197  15.2936  16.3057  17.0775  17.0967
    17.3997  17.6851  17.9175  17.9338  18.3121  19.5171  19.5537  19.6524
    19.8208  19.8725  20.3595  20.4051  24.6353  25.5863

          k = 0.3333-0.5774 0.0000 (  2970 PWs)   bands (ev):

   -75.0154 -75.0153 -66.6501 -38.3616 -38.3530 -38.3529 -38.3344 -38.3335
   -38.3255 -32.7703 -32.7697 -32.7686  -2.2886  -2.2732  -2.2645  -2.2304
    -2.2153  10.3298  13.3479  13.5281  15.7311  16.0385  16.9926  17.3461
    17.3942  17.5787  17.9228  18.0125  18.2174  19.4276  19.5875  19.6802
    19.8458  20.0601  20.1213  20.6683  23.4396  27.6470

          k = 0.3333-0.5774 0.2041 (  2988 PWs)   bands (ev):

   -75.0154 -75.0154 -66.6502 -38.3604 -38.3588 -38.3440 -38.3437 -38.3276
   -38.3275 -32.7702 -32.7699 -32.7690  -2.2841  -2.2810  -2.2618  -2.2307
    -2.2151  10.3391  12.9711  14.1197  15.2936  16.3057  17.0775  17.0967
    17.3997  17.6850  17.9175  17.9338  18.3121  19.5171  19.5537  19.6524
    19.8208  19.8725  20.3595  20.4051  24.6353  25.5863

     the Fermi energy is    19.3413 ev

!    total energy              =   -1524.73849157 Ry
     total all-electron energy =    -20474.019502 Ry
     estimated scf accuracy    <          3.6E-09 Ry
     smearing contrib. (-TS)   =      -0.00901856 Ry
     internal energy E=F+TS    =   -1524.72947301 Ry

     The total energy is F=E-TS. E is the sum of the following terms:
     one-electron contribution =    -441.42373539 Ry
     hartree contribution      =     270.83828016 Ry
     xc contribution           =    -137.80749830 Ry
     ewald contribution        =    -677.45861314 Ry
     one-center paw contrib.   =    -538.87790634 Ry

     total magnetization       =     5.33 Bohr mag/cell
     absolute magnetization    =     5.61 Bohr mag/cell

     convergence has been achieved in  19 iterations

     negative rho (up, down):  0.000E+00 1.540E-04

     Forces acting on atoms (cartesian axes, Ry/au):

     atom    1 type  2   force =     0.00000000   -0.00000000   -0.00000000
     atom    2 type  3   force =     0.00000000   -0.00000000    0.00000000
     atom    3 type  1   force =     0.00000000    0.00000000    0.00001462
     atom    4 type  1   force =     0.00000000   -0.00000000   -0.00001462

     Total force =     0.000021     Total SCF correction =     0.000075
     SCF correction compared to forces is large: reduce conv_thr to get better values


     Computing stress (Cartesian axis) and pressure


     negative rho (up, down):  0.000E+00 1.540E-04
          total   stress  (Ry/bohr**3)                   (kbar)     P=      113.27
   0.00077001   0.00000000  -0.00000000          113.27        0.00       -0.00
  -0.00000000   0.00077001  -0.00000000           -0.00      113.27       -0.00
   0.00000000  -0.00000000   0.00077003            0.00       -0.00      113.28


     Writing all to output data dir ./outdir/Co2FeSn.save/
 
     init_run     :      0.99s CPU      1.05s WALL (       1 calls)
     electrons    :     47.14s CPU     48.52s WALL (       1 calls)
     forces       :      0.24s CPU      0.24s WALL (       1 calls)
     stress       :      0.49s CPU      0.49s WALL (       1 calls)

     Called by init_run:
     wfcinit      :      0.65s CPU      0.67s WALL (       1 calls)
     potinit      :      0.17s CPU      0.19s WALL (       1 calls)
     hinit0       :      0.11s CPU      0.11s WALL (       1 calls)

     Called by electrons:
     c_bands      :     37.17s CPU     38.27s WALL (      19 calls)
     sum_band     :      6.24s CPU      6.45s WALL (      19 calls)
     v_of_rho     :      0.28s CPU      0.28s WALL (      20 calls)
     newd         :      0.70s CPU      0.71s WALL (      20 calls)
     PAW_pot      :      2.86s CPU      2.88s WALL (      20 calls)
     mix_rho      :      0.04s CPU      0.04s WALL (      19 calls)

     Called by c_bands:
     init_us_2    :      0.24s CPU      0.25s WALL (    2624 calls)
     init_us_2:cp :      0.23s CPU      0.24s WALL (    2624 calls)
     cegterg      :     36.13s CPU     37.17s WALL (    1216 calls)

     Called by *egterg:
     cdiaghg      :      9.18s CPU      9.28s WALL (    5515 calls)
     h_psi        :     23.42s CPU     24.32s WALL (    5579 calls)
     s_psi        :      0.69s CPU      0.72s WALL (    5579 calls)
     g_psi        :      0.08s CPU      0.08s WALL (    4299 calls)

     Called by h_psi:
     h_psi:calbec :      0.99s CPU      1.02s WALL (    5579 calls)
     vloc_psi     :     21.62s CPU     22.46s WALL (    5579 calls)
     add_vuspsi   :      0.72s CPU      0.74s WALL (    5579 calls)

     General routines
     calbec       :      1.37s CPU      1.43s WALL (    7115 calls)
     fft          :      0.12s CPU      0.13s WALL (     538 calls)
     ffts         :      0.01s CPU      0.01s WALL (      78 calls)
     fftw         :     23.98s CPU     24.95s WALL (  279116 calls)
     interpolate  :      0.02s CPU      0.02s WALL (      40 calls)
 
     Parallel routines
 
     PWSCF        :     49.75s CPU     51.56s WALL

 
   This run was terminated on:  23:25: 5   8Oct2025            

=------------------------------------------------------------------------------=
   JOB DONE.
=------------------------------------------------------------------------------=
