
     Program PWSCF v.7.1 starts on  8Oct2025 at 23:29:18 

     This program is part of the open-source Quantum ESPRESSO suite
     for quantum simulation of materials; please cite
         "P. Giannozzi et al., J. Phys.:Condens. Matter 21 395502 (2009);
         "P. Giannozzi et al., J. Phys.:Condens. Matter 29 465901 (2017);
         "P. Giannozzi et al., J. Chem. Phys. 152 154105 (2020);
          URL http://www.quantum-espresso.org", 
     in publications or presentations arising from this work. More details at
     http://www.quantum-espresso.org/quote

     Parallel version (MPI), running on    20 processors

     MPI processes distributed on     1 nodes
     60631 MiB available memory on the printing compute node when the environment starts
 
     Reading input from Co2FeSn_90.in

     Current dimensions of program PWSCF are:
     Max number of different atomic species (ntypx) = 10
     Max number of k-points (npk) =  40000
     Max angular momentum in pseudopotentials (lmaxx) =  4
     file Co.pbe-spn-kjpaw_psl.0.3.1.UPF: wavefunction(s)  3P 3D renormalized
     file Fe.pbe-spn-kjpaw_psl.1.0.0.UPF: wavefunction(s)  3P 3D renormalized
     file Sn.pbe-dn-kjpaw_psl.1.0.0.UPF: wavefunction(s)  5S 5P 4D renormalized
 
     R & G space division:  proc/nbgrp/npool/nimage =      20
     Subspace diagonalization in iterative solution of the eigenvalue problem:
     a serial algorithm will be used

 
     Parallelization info
     --------------------
     sticks:   dense  smooth     PW     G-vecs:    dense   smooth      PW
     Min         151      75     21                 5495     1938     297
     Max         152      76     22                 5498     1941     302
     Sum        3037    1507    433               109939    38781    5985
 
     Using Slab Decomposition
 


     bravais-lattice index     =           14
     lattice parameter (alat)  =       7.8036  a.u.
     unit-cell volume          =     336.0264 (a.u.)^3
     number of atoms/cell      =            4
     number of atomic types    =            3
     number of electrons       =        64.00
     number of Kohn-Sham states=           38
     kinetic-energy cutoff     =      90.0000  Ry
     charge density cutoff     =     720.0000  Ry
     scf convergence threshold =      1.0E-08
     mixing beta               =       0.2000
     number of iterations used =            8  plain     mixing
     Exchange-correlation= SLA  PW   PBX  PBC
                           (   1   4   3   4   0   0   0)

     celldm(1)=   7.803620  celldm(2)=   1.000000  celldm(3)=   1.000000
     celldm(4)=   0.500000  celldm(5)=   0.500000  celldm(6)=   0.500000

     crystal axes: (cart. coord. in units of alat)
               a(1) = (   1.000000   0.000000   0.000000 )  
               a(2) = (   0.500000   0.866025   0.000000 )  
               a(3) = (   0.500000   0.288675   0.816497 )  

     reciprocal axes: (cart. coord. in units 2 pi/alat)
               b(1) = (  1.000000 -0.577350 -0.408248 )  
               b(2) = (  0.000000  1.154701 -0.408248 )  
               b(3) = (  0.000000  0.000000  1.224745 )  


     PseudoPot. # 1 for Co read from file:
     <HPC_PATH>
     MD5 check sum: 3c0a43779828c046024e4f3be63f8e67
     Pseudo is Projector augmented-wave + core cor, Zval = 17.0
     Generated using &quot;atomic&quot; code by A. Dal Corso  v.6.2.2
     Shape of augmentation charge: PSQ
     Using radial grid of 1193 points,  6 beta functions with: 
                l(1) =   0
                l(2) =   0
                l(3) =   1
                l(4) =   1
                l(5) =   2
                l(6) =   2
     Q(r) pseudized with 0 coefficients 


     PseudoPot. # 2 for Fe read from file:
     <HPC_PATH>
     MD5 check sum: fc81f059e5c5069939230b1155715ae8
     Pseudo is Projector augmented-wave + core cor, Zval = 16.0
     Generated using &quot;atomic&quot; code by A. Dal Corso  v.6.3
     Shape of augmentation charge: PSQ
     Using radial grid of 1191 points,  6 beta functions with: 
                l(1) =   0
                l(2) =   0
                l(3) =   1
                l(4) =   1
                l(5) =   2
                l(6) =   2
     Q(r) pseudized with 0 coefficients 


     PseudoPot. # 3 for Sn read from file:
     <HPC_PATH>
     MD5 check sum: 67f11dec737d427557dc41ea34975807
     Pseudo is Projector augmented-wave + core cor, Zval = 14.0
     Generated using &quot;atomic&quot; code by A. Dal Corso  v.6.3
     Shape of augmentation charge: PSQ
     Using radial grid of 1243 points,  6 beta functions with: 
                l(1) =   0
                l(2) =   0
                l(3) =   1
                l(4) =   1
                l(5) =   2
                l(6) =   2
     Q(r) pseudized with 0 coefficients 


     atomic species   valence    mass     pseudopotential
        Co            17.00    58.93300     Co( 1.00)
        Fe            16.00    55.84500     Fe( 1.00)
        Sn            14.00   118.71000     Sn( 1.00)

     Starting magnetic structure 
     atomic species   magnetization
        Co           0.500
        Fe           0.500
        Sn           0.000

     12 Sym. Ops., with inversion, found



   Cartesian axes

     site n.     atom                  positions (alat units)
         1           Fe  tau(   1) = (   1.0000000   0.5773503   0.4082483  )
         2           Sn  tau(   2) = (   0.0000000   0.0000000   0.0000000  )
         3           Co  tau(   3) = (   0.5000000   0.2886751   0.2041241  )
         4           Co  tau(   4) = (   1.5000000   0.8660254   0.6123724  )

     number of k points=    32  Gaussian smearing, width (Ry)=  0.0200
                       cart. coord. in units 2pi/alat
        k(    1) = (   0.0000000   0.0000000   0.0000000), wk =   0.0046296
        k(    2) = (   0.0000000   0.0000000   0.2041241), wk =   0.0092593
        k(    3) = (   0.0000000   0.0000000   0.4082483), wk =   0.0092593
        k(    4) = (   0.0000000   0.0000000  -0.6123724), wk =   0.0046296
        k(    5) = (   0.0000000   0.1924501  -0.0680414), wk =   0.0277778
        k(    6) = (   0.0000000   0.1924501   0.1360828), wk =   0.0277778
        k(    7) = (   0.0000000   0.1924501   0.3402069), wk =   0.0277778
        k(    8) = (   0.0000000   0.1924501  -0.6804138), wk =   0.0277778
        k(    9) = (   0.0000000   0.1924501  -0.4762897), wk =   0.0277778
        k(   10) = (   0.0000000   0.1924501  -0.2721655), wk =   0.0277778
        k(   11) = (   0.0000000   0.3849002  -0.1360828), wk =   0.0277778
        k(   12) = (   0.0000000   0.3849002   0.0680414), wk =   0.0277778
        k(   13) = (   0.0000000   0.3849002   0.2721655), wk =   0.0277778
        k(   14) = (   0.0000000   0.3849002  -0.7484552), wk =   0.0277778
        k(   15) = (   0.0000000   0.3849002  -0.5443311), wk =   0.0277778
        k(   16) = (   0.0000000   0.3849002  -0.3402069), wk =   0.0277778
        k(   17) = (   0.0000000  -0.5773503   0.2041241), wk =   0.0138889
        k(   18) = (   0.0000000  -0.5773503   0.4082483), wk =   0.0277778
        k(   19) = (   0.0000000  -0.5773503   0.6123724), wk =   0.0277778
        k(   20) = (   0.0000000  -0.5773503  -0.4082483), wk =   0.0138889
        k(   21) = (   0.1666667   0.2886751  -0.2041241), wk =   0.0555556
        k(   22) = (   0.1666667   0.2886751  -0.0000000), wk =   0.0277778
        k(   23) = (   0.1666667   0.2886751  -0.8164966), wk =   0.0555556
        k(   24) = (   0.1666667   0.2886751  -0.6123724), wk =   0.0277778
        k(   25) = (   0.1666667  -0.6735753   0.1360828), wk =   0.0555556
        k(   26) = (   0.1666667  -0.6735753   0.3402069), wk =   0.0555556
        k(   27) = (   0.1666667  -0.6735753   0.5443311), wk =   0.0555556
        k(   28) = (   0.1666667  -0.6735753  -0.4762897), wk =   0.0555556
        k(   29) = (   0.1666667  -0.6735753  -0.2721655), wk =   0.0555556
        k(   30) = (   0.1666667  -0.6735753  -0.0680414), wk =   0.0555556
        k(   31) = (   0.3333333  -0.5773503   0.0000000), wk =   0.0277778
        k(   32) = (   0.3333333  -0.5773503   0.2041241), wk =   0.0277778

     Dense  grid:   109939 G-vectors     FFT dimensions: (  72,  72,  72)

     Smooth grid:    38781 G-vectors     FFT dimensions: (  48,  48,  48)

     Estimated max dynamical RAM per process >      39.32 MB

     Estimated total dynamical RAM >     786.39 MB

     Check: negative core charge=   -0.000005
     Generating pointlists ...
     new r_m :   0.2526 (alat units)  1.9712 (a.u.) for type    1
     new r_m :   0.2526 (alat units)  1.9712 (a.u.) for type    2
     new r_m :   0.2526 (alat units)  1.9712 (a.u.) for type    3

     Initial potential from superposition of free atoms

     starting charge      63.9976, renormalised to      64.0000
     Starting wfcs are   39 randomized atomic wfcs
     Checking if some PAW data can be deallocated... 

     total cpu time spent up to now is        1.5 secs

     per-process dynamical memory:    86.9 Mb

     Self-consistent Calculation

     iteration #  1     ecut=    90.00 Ry     beta= 0.20
     Davidson diagonalization with overlap
     ethr =  1.00E-02,  avg # of iterations =  4.4

     total cpu time spent up to now is        4.5 secs

     total energy              =   -1523.36301838 Ry
     estimated scf accuracy    <       2.81272185 Ry

     total magnetization       =     8.07 Bohr mag/cell
     absolute magnetization    =     8.57 Bohr mag/cell

     iteration #  2     ecut=    90.00 Ry     beta= 0.20
     Davidson diagonalization with overlap
     ethr =  4.39E-03,  avg # of iterations =  1.7

     negative rho (up, down):  0.000E+00 5.632E-05

     total cpu time spent up to now is        6.8 secs

     total energy              =   -1524.26378568 Ry
     estimated scf accuracy    <       2.00961571 Ry

     total magnetization       =     7.47 Bohr mag/cell
     absolute magnetization    =     8.28 Bohr mag/cell

     iteration #  3     ecut=    90.00 Ry     beta= 0.20
     Davidson diagonalization with overlap
     ethr =  3.14E-03,  avg # of iterations =  1.5

     negative rho (up, down):  0.000E+00 1.621E-04

     total cpu time spent up to now is        9.1 secs

     total energy              =   -1524.52669846 Ry
     estimated scf accuracy    <       2.28317078 Ry

     total magnetization       =     6.96 Bohr mag/cell
     absolute magnetization    =     7.74 Bohr mag/cell

     iteration #  4     ecut=    90.00 Ry     beta= 0.20
     Davidson diagonalization with overlap
     ethr =  3.14E-03,  avg # of iterations =  1.0

     negative rho (up, down):  0.000E+00 1.500E-04

     total cpu time spent up to now is       11.2 secs

     total energy              =   -1524.74405292 Ry
     estimated scf accuracy    <       0.08221335 Ry

     total magnetization       =     5.54 Bohr mag/cell
     absolute magnetization    =     6.41 Bohr mag/cell

     iteration #  5     ecut=    90.00 Ry     beta= 0.20
     Davidson diagonalization with overlap
     ethr =  1.28E-04,  avg # of iterations =  5.4

     negative rho (up, down):  0.000E+00 1.433E-04

     total cpu time spent up to now is       14.6 secs

     total energy              =   -1524.75986270 Ry
     estimated scf accuracy    <       0.03662786 Ry

     total magnetization       =     5.48 Bohr mag/cell
     absolute magnetization    =     6.08 Bohr mag/cell

     iteration #  6     ecut=    90.00 Ry     beta= 0.20
     Davidson diagonalization with overlap
     ethr =  5.72E-05,  avg # of iterations =  3.5

     negative rho (up, down):  0.000E+00 1.294E-04

     total cpu time spent up to now is       17.4 secs

     total energy              =   -1524.76703679 Ry
     estimated scf accuracy    <       0.00949300 Ry

     total magnetization       =     5.27 Bohr mag/cell
     absolute magnetization    =     5.75 Bohr mag/cell

     iteration #  7     ecut=    90.00 Ry     beta= 0.20
     Davidson diagonalization with overlap
     c_bands:  1 eigenvalues not converged
     ethr =  1.48E-05,  avg # of iterations =  4.5

     negative rho (up, down):  0.000E+00 1.117E-04

     total cpu time spent up to now is       20.4 secs

     total energy              =   -1524.77262623 Ry
     estimated scf accuracy    <       0.02825450 Ry

     total magnetization       =     5.44 Bohr mag/cell
     absolute magnetization    =     5.89 Bohr mag/cell

     iteration #  8     ecut=    90.00 Ry     beta= 0.20
     Davidson diagonalization with overlap
     ethr =  1.48E-05,  avg # of iterations =  2.0

     negative rho (up, down):  0.000E+00 1.043E-04

     total cpu time spent up to now is       22.8 secs

     total energy              =   -1524.77256342 Ry
     estimated scf accuracy    <       0.00860090 Ry

     total magnetization       =     5.34 Bohr mag/cell
     absolute magnetization    =     5.74 Bohr mag/cell

     iteration #  9     ecut=    90.00 Ry     beta= 0.20
     Davidson diagonalization with overlap
     ethr =  1.34E-05,  avg # of iterations =  2.7

     negative rho (up, down):  0.000E+00 9.996E-05

     total cpu time spent up to now is       25.4 secs

     total energy              =   -1524.77352271 Ry
     estimated scf accuracy    <       0.00340458 Ry

     total magnetization       =     5.37 Bohr mag/cell
     absolute magnetization    =     5.71 Bohr mag/cell

     iteration # 10     ecut=    90.00 Ry     beta= 0.20
     Davidson diagonalization with overlap
     ethr =  5.32E-06,  avg # of iterations =  2.4

     negative rho (up, down):  0.000E+00 9.970E-05

     total cpu time spent up to now is       27.8 secs

     total energy              =   -1524.77409010 Ry
     estimated scf accuracy    <       0.00144728 Ry

     total magnetization       =     5.38 Bohr mag/cell
     absolute magnetization    =     5.71 Bohr mag/cell

     iteration # 11     ecut=    90.00 Ry     beta= 0.20
     Davidson diagonalization with overlap
     c_bands:  1 eigenvalues not converged
     ethr =  2.26E-06,  avg # of iterations =  2.9

     negative rho (up, down):  0.000E+00 9.894E-05

     total cpu time spent up to now is       30.3 secs

     total energy              =   -1524.77412365 Ry
     estimated scf accuracy    <       0.00172563 Ry

     total magnetization       =     5.37 Bohr mag/cell
     absolute magnetization    =     5.70 Bohr mag/cell

     iteration # 12     ecut=    90.00 Ry     beta= 0.20
     Davidson diagonalization with overlap
     ethr =  2.26E-06,  avg # of iterations =  1.2

     negative rho (up, down):  0.000E+00 9.784E-05

     total cpu time spent up to now is       32.5 secs

     total energy              =   -1524.77423174 Ry
     estimated scf accuracy    <       0.00025605 Ry

     total magnetization       =     5.36 Bohr mag/cell
     absolute magnetization    =     5.67 Bohr mag/cell

     iteration # 13     ecut=    90.00 Ry     beta= 0.20
     Davidson diagonalization with overlap
     ethr =  4.00E-07,  avg # of iterations =  4.5

     negative rho (up, down):  0.000E+00 9.790E-05

     total cpu time spent up to now is       35.6 secs

     total energy              =   -1524.77434289 Ry
     estimated scf accuracy    <       0.00033619 Ry

     total magnetization       =     5.33 Bohr mag/cell
     absolute magnetization    =     5.63 Bohr mag/cell

     iteration # 14     ecut=    90.00 Ry     beta= 0.20
     Davidson diagonalization with overlap
     c_bands:  1 eigenvalues not converged
     ethr =  4.00E-07,  avg # of iterations =  3.1

     negative rho (up, down):  0.000E+00 9.808E-05

     total cpu time spent up to now is       38.2 secs

     total energy              =   -1524.77437523 Ry
     estimated scf accuracy    <       0.00046596 Ry

     total magnetization       =     5.34 Bohr mag/cell
     absolute magnetization    =     5.63 Bohr mag/cell

     iteration # 15     ecut=    90.00 Ry     beta= 0.20
     Davidson diagonalization with overlap
     ethr =  4.00E-07,  avg # of iterations =  1.6

     negative rho (up, down):  0.000E+00 9.793E-05

     total cpu time spent up to now is       40.5 secs

     total energy              =   -1524.77437739 Ry
     estimated scf accuracy    <       0.00064955 Ry

     total magnetization       =     5.36 Bohr mag/cell
     absolute magnetization    =     5.65 Bohr mag/cell

     iteration # 16     ecut=    90.00 Ry     beta= 0.20
     Davidson diagonalization with overlap
     ethr =  4.00E-07,  avg # of iterations =  1.0

     negative rho (up, down):  0.000E+00 9.778E-05

     total cpu time spent up to now is       42.6 secs

     total energy              =   -1524.77436815 Ry
     estimated scf accuracy    <       0.00058405 Ry

     total magnetization       =     5.36 Bohr mag/cell
     absolute magnetization    =     5.65 Bohr mag/cell

     iteration # 17     ecut=    90.00 Ry     beta= 0.20
     Davidson diagonalization with overlap
     ethr =  4.00E-07,  avg # of iterations =  1.0

     negative rho (up, down):  0.000E+00 9.827E-05

     total cpu time spent up to now is       44.8 secs

     total energy              =   -1524.77436473 Ry
     estimated scf accuracy    <       0.00044149 Ry

     total magnetization       =     5.35 Bohr mag/cell
     absolute magnetization    =     5.64 Bohr mag/cell

     iteration # 18     ecut=    90.00 Ry     beta= 0.20
     Davidson diagonalization with overlap
     ethr =  4.00E-07,  avg # of iterations =  1.0

     negative rho (up, down):  0.000E+00 9.816E-05

     total cpu time spent up to now is       46.9 secs

     total energy              =   -1524.77436754 Ry
     estimated scf accuracy    <       0.00059717 Ry

     total magnetization       =     5.36 Bohr mag/cell
     absolute magnetization    =     5.65 Bohr mag/cell

     iteration # 19     ecut=    90.00 Ry     beta= 0.20
     Davidson diagonalization with overlap
     ethr =  4.00E-07,  avg # of iterations =  1.0

     negative rho (up, down):  0.000E+00 9.772E-05

     total cpu time spent up to now is       49.1 secs

     total energy              =   -1524.77427316 Ry
     estimated scf accuracy    <       0.00054402 Ry

     total magnetization       =     5.36 Bohr mag/cell
     absolute magnetization    =     5.65 Bohr mag/cell

     iteration # 20     ecut=    90.00 Ry     beta= 0.20
     Davidson diagonalization with overlap
     ethr =  4.00E-07,  avg # of iterations =  2.7

     negative rho (up, down):  0.000E+00 9.816E-05

     total cpu time spent up to now is       51.6 secs

     total energy              =   -1524.77435207 Ry
     estimated scf accuracy    <       0.00002068 Ry

     total magnetization       =     5.34 Bohr mag/cell
     absolute magnetization    =     5.63 Bohr mag/cell

     iteration # 21     ecut=    90.00 Ry     beta= 0.20
     Davidson diagonalization with overlap
     ethr =  3.23E-08,  avg # of iterations =  3.6

     negative rho (up, down):  0.000E+00 9.868E-05

     total cpu time spent up to now is       54.7 secs

     total energy              =   -1524.77434962 Ry
     estimated scf accuracy    <       0.00003402 Ry

     total magnetization       =     5.34 Bohr mag/cell
     absolute magnetization    =     5.62 Bohr mag/cell

     iteration # 22     ecut=    90.00 Ry     beta= 0.20
     Davidson diagonalization with overlap
     ethr =  3.23E-08,  avg # of iterations =  2.0

     negative rho (up, down):  0.000E+00 9.878E-05

     total cpu time spent up to now is       57.1 secs

     total energy              =   -1524.77435273 Ry
     estimated scf accuracy    <       0.00000252 Ry

     total magnetization       =     5.34 Bohr mag/cell
     absolute magnetization    =     5.63 Bohr mag/cell

     iteration # 23     ecut=    90.00 Ry     beta= 0.20
     Davidson diagonalization with overlap
     ethr =  3.94E-09,  avg # of iterations =  5.1

     negative rho (up, down):  0.000E+00 9.896E-05

     total cpu time spent up to now is       60.4 secs

     total energy              =   -1524.77435373 Ry
     estimated scf accuracy    <       0.00000060 Ry

     total magnetization       =     5.34 Bohr mag/cell
     absolute magnetization    =     5.63 Bohr mag/cell

     iteration # 24     ecut=    90.00 Ry     beta= 0.20
     Davidson diagonalization with overlap
     ethr =  9.44E-10,  avg # of iterations =  3.9

     negative rho (up, down):  0.000E+00 9.914E-05

     total cpu time spent up to now is       63.2 secs

     total energy              =   -1524.77435402 Ry
     estimated scf accuracy    <       0.00000032 Ry

     total magnetization       =     5.34 Bohr mag/cell
     absolute magnetization    =     5.62 Bohr mag/cell

     iteration # 25     ecut=    90.00 Ry     beta= 0.20
     Davidson diagonalization with overlap
     ethr =  5.07E-10,  avg # of iterations =  3.6

     negative rho (up, down):  0.000E+00 9.925E-05

     total cpu time spent up to now is       66.0 secs

     total energy              =   -1524.77435401 Ry
     estimated scf accuracy    <       0.00000043 Ry

     total magnetization       =     5.34 Bohr mag/cell
     absolute magnetization    =     5.62 Bohr mag/cell

     iteration # 26     ecut=    90.00 Ry     beta= 0.20
     Davidson diagonalization with overlap
     ethr =  5.07E-10,  avg # of iterations =  4.8

     negative rho (up, down):  0.000E+00 9.936E-05

     total cpu time spent up to now is       69.6 secs

     total energy              =   -1524.77435408 Ry
     estimated scf accuracy    <       0.00000071 Ry

     total magnetization       =     5.34 Bohr mag/cell
     absolute magnetization    =     5.62 Bohr mag/cell

     iteration # 27     ecut=    90.00 Ry     beta= 0.20
     Davidson diagonalization with overlap
     ethr =  5.07E-10,  avg # of iterations =  3.0

     negative rho (up, down):  0.000E+00 9.936E-05

     total cpu time spent up to now is       72.3 secs

     total energy              =   -1524.77435416 Ry
     estimated scf accuracy    <       0.00000002 Ry

     total magnetization       =     5.34 Bohr mag/cell
     absolute magnetization    =     5.62 Bohr mag/cell

     iteration # 28     ecut=    90.00 Ry     beta= 0.20
     Davidson diagonalization with overlap
     ethr =  3.90E-11,  avg # of iterations =  4.7

     negative rho (up, down):  0.000E+00 9.934E-05
 
     Magnetic moment per site  (integrated on atomic sphere of radius R)
     atom   1 (R=0.253)  charge= 14.4761  magn=  2.8201
     atom   2 (R=0.253)  charge= 11.1697  magn= -0.0081
     atom   3 (R=0.253)  charge= 15.7980  magn=  1.2981
     atom   4 (R=0.253)  charge= 15.7980  magn=  1.2981

     total cpu time spent up to now is       75.7 secs

     End of self-consistent calculation

 ------ SPIN UP ------------


          k = 0.0000 0.0000 0.0000 (  4909 PWs)   bands (ev):

   -76.5296 -76.5234 -69.8833 -39.8403 -39.8403 -39.8403 -39.8159 -39.8159
   -39.8159 -35.9302 -35.9302 -35.9302  -2.2799  -2.2799  -2.2799  -2.2203
    -2.2203   7.3704  14.7412  14.7412  14.9328  14.9328  14.9328  15.6493
    15.6493  15.6493  17.2167  17.2167  17.7749  17.7749  17.8426  17.8426
    17.8427  22.9789  23.2616  23.2616  23.2616  24.2609

          k = 0.0000 0.0000 0.2041 (  4846 PWs)   bands (ev):

   -76.5291 -76.5238 -69.8833 -39.8389 -39.8387 -39.8387 -39.8176 -39.8176
   -39.8173 -35.9304 -35.9301 -35.9301  -2.2806  -2.2766  -2.2766  -2.2176
    -2.2176   7.7430  14.4889  14.4889  14.5052  15.3570  15.3570  15.5658
    15.6339  15.6339  17.1850  17.1850  17.4856  17.5544  17.5544  17.8814
    17.8814  20.8517  22.6828  22.6828  23.1146  24.4255

          k = 0.0000 0.0000 0.4082 (  4813 PWs)   bands (ev):

   -76.5279 -76.5249 -69.8833 -39.8348 -39.8344 -39.8344 -39.8221 -39.8221
   -39.8216 -35.9309 -35.9299 -35.9299  -2.2822  -2.2709  -2.2709  -2.2114
    -2.2114   8.7815  13.0908  14.3530  14.3530  15.4681  15.4940  15.4940
    16.0129  16.0129  17.0707  17.0707  17.1443  17.3080  17.3080  17.7556
    17.7556  18.8919  22.2826  22.2826  22.8658  23.5722

          k = 0.0000 0.0000-0.6124 (  4850 PWs)   bands (ev):

   -76.5264 -76.5264 -69.8834 -39.8290 -39.8290 -39.8289 -39.8277 -39.8276
   -39.8276 -35.9311 -35.9298 -35.9298  -2.2832  -2.2686  -2.2686  -2.2079
    -2.2079   9.7742  11.8188  14.3241  14.3241  15.4810  15.4810  15.5200
    16.2885  16.2885  16.9846  16.9846  17.1596  17.2499  17.2499  17.6166
    17.6166  18.0160  22.2717  22.2717  22.8140  23.0474

          k = 0.0000 0.1925-0.0680 (  4846 PWs)   bands (ev):

   -76.5291 -76.5238 -69.8833 -39.8389 -39.8387 -39.8387 -39.8176 -39.8176
   -39.8173 -35.9304 -35.9301 -35.9301  -2.2806  -2.2766  -2.2766  -2.2176
    -2.2176   7.7430  14.4889  14.4889  14.5052  15.3570  15.3570  15.5658
    15.6339  15.6339  17.1850  17.1850  17.4856  17.5544  17.5544  17.8814
    17.8814  20.8517  22.6828  22.6828  23.1146  24.4255

          k = 0.0000 0.1925 0.1361 (  4857 PWs)   bands (ev):

   -76.5290 -76.5239 -69.8833 -39.8413 -39.8413 -39.8327 -39.8234 -39.8151
   -39.8151 -35.9307 -35.9300 -35.9300  -2.2858  -2.2729  -2.2729  -2.2204
    -2.2143   7.8644  13.9078  14.9016  15.1045  15.1045  15.3195  15.3998
    15.6907  15.6907  17.0540  17.2607  17.4514  17.5089  17.5089  17.7670
    17.9261  21.3581  21.3702  21.3702  23.4251  23.4963

          k = 0.0000 0.1925 0.3402 (  4850 PWs)   bands (ev):

   -76.5282 -76.5247 -69.8833 -39.8405 -39.8405 -39.8305 -39.8256 -39.8161
   -39.8161 -35.9310 -35.9299 -35.9298  -2.2877  -2.2683  -2.2666  -2.2192
    -2.2083   8.6737  13.3312  14.5424  14.7552  15.2850  15.4724  15.6272
    15.8166  15.9074  16.8877  17.0841  17.2333  17.2465  17.3233  17.7161
    17.8958  19.3871  20.5324  20.5392  22.8876  24.6631

          k = 0.0000 0.1925-0.6804 (  4842 PWs)   bands (ev):

   -76.5269 -76.5259 -69.8834 -39.8375 -39.8363 -39.8358 -39.8207 -39.8204
   -39.8191 -35.9310 -35.9300 -35.9297  -2.2833  -2.2693  -2.2641  -2.2145
    -2.2055   9.8011  12.2980  14.0493  14.5470  15.3365  15.4767  15.5895
    16.2562  16.3324  16.8073  16.8187  17.0875  17.1675  17.3619  17.6943
    17.7050  18.1240  19.9825  20.4051  22.7205  25.3041

          k = 0.0000 0.1925-0.4763 (  4842 PWs)   bands (ev):

   -76.5273 -76.5256 -69.8834 -39.8417 -39.8299 -39.8292 -39.8274 -39.8267
   -39.8149 -35.9308 -35.9301 -35.9298  -2.2797  -2.2716  -2.2670  -2.2114
    -2.2096   9.4568  12.6976  14.1959  14.3460  15.2844  15.4435  15.6529
    16.1684  16.2707  16.7560  16.9066  17.0323  17.2239  17.2387  17.6938
    17.9415  18.4619  19.8730  21.0569  22.8082  25.0200

          k = 0.0000 0.1925-0.2722 (  4832 PWs)   bands (ev):

   -76.5285 -76.5244 -69.8833 -39.8421 -39.8340 -39.8333 -39.8230 -39.8224
   -39.8143 -35.9307 -35.9300 -35.9300  -2.2815  -2.2732  -2.2717  -2.2157
    -2.2132   8.3374  13.7708  14.2817  14.8929  15.1452  15.5109  15.5134
    15.7723  15.8245  16.9913  17.2357  17.2416  17.2692  17.3443  17.7071
    18.0202  20.1579  20.2254  22.2954  23.1711  25.1640

          k = 0.0000 0.3849-0.1361 (  4813 PWs)   bands (ev):

   -76.5279 -76.5249 -69.8833 -39.8348 -39.8344 -39.8344 -39.8221 -39.8221
   -39.8216 -35.9309 -35.9299 -35.9299  -2.2822  -2.2709  -2.2709  -2.2114
    -2.2114   8.7815  13.0908  14.3530  14.3530  15.4681  15.4941  15.4941
    16.0129  16.0129  17.0707  17.0707  17.1443  17.3080  17.3080  17.7556
    17.7556  18.8918  22.2826  22.2826  22.8658  23.5722

          k = 0.0000 0.3849 0.0680 (  4850 PWs)   bands (ev):

   -76.5282 -76.5247 -69.8833 -39.8405 -39.8405 -39.8305 -39.8256 -39.8161
   -39.8161 -35.9310 -35.9299 -35.9298  -2.2877  -2.2683  -2.2666  -2.2192
    -2.2083   8.6737  13.3312  14.5424  14.7551  15.2850  15.4724  15.6272
    15.8166  15.9074  16.8878  17.0841  17.2333  17.2465  17.3233  17.7161
    17.8958  19.3871  20.5323  20.5392  22.8876  24.6631

          k = 0.0000 0.3849 0.2722 (  4852 PWs)   bands (ev):

   -76.5279 -76.5249 -69.8834 -39.8434 -39.8434 -39.8383 -39.8176 -39.8135
   -39.8135 -35.9316 -35.9296 -35.9296  -2.2979  -2.2592  -2.2592  -2.2266
    -2.2026   9.1912  12.9166  14.8316  15.3455  15.3926  15.4977  15.4977
    15.8659  15.8659  16.6036  17.0410  17.0410  17.1687  17.3068  17.7507
    17.7720  18.9571  19.2571  19.2571  22.3800  23.0239

          k = 0.0000 0.3849-0.7485 (  4853 PWs)   bands (ev):

   -76.5273 -76.5256 -69.8834 -39.8438 -39.8422 -39.8418 -39.8149 -39.8147
   -39.8124 -35.9316 -35.9297 -35.9295  -2.2962  -2.2588  -2.2561  -2.2268
    -2.1999  10.0446  12.6707  14.1256  15.0292  15.1730  15.5382  15.7545
    15.9668  16.1709  16.6903  16.8874  16.9608  17.0625  17.4117  17.6391
    17.8228  18.2113  18.4516  18.7364  22.5257  24.1171

          k = 0.0000 0.3849-0.5443 (  4826 PWs)   bands (ev):

   -76.5264 -76.5264 -69.8834 -39.8450 -39.8372 -39.8365 -39.8202 -39.8196
   -39.8113 -35.9309 -35.9302 -35.9296  -2.2839  -2.2680  -2.2595  -2.2195
    -2.2039  10.2191  13.0237  13.2406  14.6917  15.0292  15.4297  15.9107
    16.0725  16.5003  16.6276  16.7136  16.9455  17.0914  17.2310  17.9221
    18.0161  18.0595  18.4740  19.3490  22.6001  27.0610

          k = 0.0000 0.3849-0.3402 (  4842 PWs)   bands (ev):

   -76.5273 -76.5256 -69.8834 -39.8417 -39.8299 -39.8292 -39.8274 -39.8267
   -39.8149 -35.9308 -35.9301 -35.9298  -2.2797  -2.2716  -2.2670  -2.2114
    -2.2096   9.4568  12.6976  14.1959  14.3460  15.2844  15.4435  15.6529
    16.1684  16.2707  16.7560  16.9066  17.0323  17.2239  17.2387  17.6938
    17.9415  18.4618  19.8730  21.0569  22.8082  25.0200

          k = 0.0000-0.5774 0.2041 (  4850 PWs)   bands (ev):

   -76.5264 -76.5264 -69.8834 -39.8290 -39.8290 -39.8289 -39.8276 -39.8276
   -39.8276 -35.9311 -35.9298 -35.9298  -2.2832  -2.2686  -2.2686  -2.2079
    -2.2079   9.7742  11.8188  14.3241  14.3241  15.4810  15.4810  15.5200
    16.2885  16.2885  16.9846  16.9846  17.1596  17.2498  17.2499  17.6166
    17.6166  18.0160  22.2717  22.2717  22.8140  23.0474

          k = 0.0000-0.5774 0.4082 (  4842 PWs)   bands (ev):

   -76.5269 -76.5259 -69.8834 -39.8375 -39.8363 -39.8358 -39.8207 -39.8204
   -39.8191 -35.9310 -35.9300 -35.9297  -2.2833  -2.2693  -2.2641  -2.2145
    -2.2055   9.8011  12.2980  14.0493  14.5470  15.3365  15.4767  15.5895
    16.2562  16.3324  16.8073  16.8187  17.0875  17.1675  17.3619  17.6943
    17.7050  18.1240  19.9825  20.4051  22.7205  25.3041

          k = 0.0000-0.5774 0.6124 (  4853 PWs)   bands (ev):

   -76.5273 -76.5256 -69.8834 -39.8438 -39.8422 -39.8418 -39.8149 -39.8147
   -39.8124 -35.9316 -35.9297 -35.9295  -2.2962  -2.2588  -2.2561  -2.2268
    -2.1999  10.0446  12.6707  14.1256  15.0292  15.1730  15.5382  15.7545
    15.9668  16.1709  16.6903  16.8874  16.9608  17.0625  17.4117  17.6391
    17.8228  18.2113  18.4516  18.7364  22.5257  24.1171

          k = 0.0000-0.5774-0.4082 (  4824 PWs)   bands (ev):

   -76.5274 -76.5254 -69.8834 -39.8459 -39.8444 -39.8444 -39.8127 -39.8127
   -39.8100 -35.9320 -35.9293 -35.9293  -2.3041  -2.2525  -2.2525  -2.2325
    -2.1967  10.2870  12.4133  14.5421  14.8661  15.6766  15.6766  15.8911
    16.0366  16.0366  16.0541  16.9599  17.1517  17.1517  17.3654  17.6141
    17.7427  18.0602  18.0602  18.1876  22.2405  22.9188

          k = 0.1667 0.2887-0.2041 (  4850 PWs)   bands (ev):

   -76.5282 -76.5247 -69.8833 -39.8405 -39.8405 -39.8305 -39.8256 -39.8162
   -39.8161 -35.9310 -35.9299 -35.9298  -2.2877  -2.2683  -2.2666  -2.2192
    -2.2083   8.6737  13.3312  14.5424  14.7552  15.2850  15.4724  15.6272
    15.8166  15.9074  16.8877  17.0841  17.2333  17.2465  17.3233  17.7161
    17.8958  19.3871  20.5324  20.5392  22.8876  24.6631

          k = 0.1667 0.2887-0.0000 (  4832 PWs)   bands (ev):

   -76.5285 -76.5244 -69.8833 -39.8421 -39.8339 -39.8333 -39.8230 -39.8224
   -39.8143 -35.9307 -35.9300 -35.9300  -2.2815  -2.2732  -2.2717  -2.2157
    -2.2132   8.3374  13.7708  14.2817  14.8929  15.1452  15.5109  15.5134
    15.7723  15.8245  16.9913  17.2357  17.2416  17.2692  17.3443  17.7071
    18.0202  20.1579  20.2254  22.2954  23.1711  25.1636

          k = 0.1667 0.2887-0.8165 (  4844 PWs)   bands (ev):

   -76.5274 -76.5254 -69.8834 -39.8440 -39.8378 -39.8356 -39.8213 -39.8184
   -39.8128 -35.9311 -35.9300 -35.9296  -2.2872  -2.2680  -2.2600  -2.2202
    -2.2045   9.5531  12.9328  14.2006  14.5816  15.2104  15.5736  15.7714
    15.8577  16.2383  16.6769  16.8877  16.9689  17.2270  17.2631  17.7254
    17.9416  18.8052  18.9353  19.3865  23.9165  24.6887

          k = 0.1667 0.2887-0.6124 (  4864 PWs)   bands (ev):

   -76.5264 -76.5264 -69.8834 -39.8438 -39.8420 -39.8287 -39.8283 -39.8136
   -39.8136 -35.9308 -35.9305 -35.9295  -2.2789  -2.2758  -2.2567  -2.2197
    -2.2037  10.2287  12.7290  13.6178  14.5709  15.1364  15.5974  15.6465
    16.0762  16.5354  16.6115  16.6979  16.9721  17.1952  17.3653  17.7489
    17.8066  18.0790  18.7962  18.8612  24.1357  24.7494

          k = 0.1667-0.6736 0.1361 (  4842 PWs)   bands (ev):

   -76.5269 -76.5259 -69.8834 -39.8375 -39.8363 -39.8358 -39.8207 -39.8204
   -39.8191 -35.9310 -35.9300 -35.9297  -2.2833  -2.2693  -2.2641  -2.2145
    -2.2055   9.8011  12.2980  14.0493  14.5470  15.3365  15.4767  15.5895
    16.2562  16.3324  16.8073  16.8187  17.0875  17.1675  17.3619  17.6943
    17.7050  18.1240  19.9825  20.4051  22.7205  25.3040

          k = 0.1667-0.6736 0.3402 (  4842 PWs)   bands (ev):

   -76.5273 -76.5256 -69.8834 -39.8417 -39.8299 -39.8292 -39.8274 -39.8267
   -39.8149 -35.9308 -35.9301 -35.9298  -2.2797  -2.2716  -2.2670  -2.2114
    -2.2096   9.4568  12.6976  14.1958  14.3460  15.2844  15.4435  15.6529
    16.1684  16.2707  16.7561  16.9066  17.0323  17.2239  17.2387  17.6939
    17.9415  18.4618  19.8729  21.0569  22.8082  25.0200

          k = 0.1667-0.6736 0.5443 (  4844 PWs)   bands (ev):

   -76.5274 -76.5254 -69.8834 -39.8440 -39.8378 -39.8356 -39.8213 -39.8184
   -39.8128 -35.9311 -35.9300 -35.9296  -2.2872  -2.2680  -2.2600  -2.2202
    -2.2045   9.5531  12.9328  14.2006  14.5816  15.2104  15.5736  15.7714
    15.8577  16.2383  16.6769  16.8877  16.9689  17.2270  17.2631  17.7254
    17.9416  18.8052  18.9353  19.3865  23.9165  24.6887

          k = 0.1667-0.6736-0.4763 (  4853 PWs)   bands (ev):

   -76.5273 -76.5256 -69.8834 -39.8438 -39.8422 -39.8418 -39.8149 -39.8147
   -39.8124 -35.9316 -35.9297 -35.9295  -2.2962  -2.2588  -2.2561  -2.2268
    -2.1999  10.0446  12.6707  14.1256  15.0292  15.1730  15.5382  15.7545
    15.9668  16.1709  16.6903  16.8874  16.9608  17.0626  17.4117  17.6391
    17.8228  18.2113  18.4516  18.7364  22.5257  24.1171

          k = 0.1667-0.6736-0.2722 (  4852 PWs)   bands (ev):

   -76.5269 -76.5259 -69.8834 -39.8462 -39.8441 -39.8365 -39.8206 -39.8120
   -39.8107 -35.9313 -35.9300 -35.9294  -2.2912  -2.2654  -2.2525  -2.2262
    -2.2002  10.3939  12.8364  13.8602  14.4596  15.2995  15.5985  15.7023
    15.8953  16.2905  16.6786  16.7276  17.1215  17.2527  17.4657  17.4746
    17.8530  18.1045  18.1740  18.1951  23.6922  24.4345

          k = 0.1667-0.6736-0.0680 (  4864 PWs)   bands (ev):

   -76.5264 -76.5264 -69.8834 -39.8438 -39.8420 -39.8287 -39.8283 -39.8136
   -39.8136 -35.9308 -35.9305 -35.9295  -2.2789  -2.2758  -2.2567  -2.2197
    -2.2037  10.2287  12.7290  13.6178  14.5709  15.1364  15.5974  15.6465
    16.0762  16.5354  16.6115  16.6979  16.9721  17.1952  17.3653  17.7489
    17.8066  18.0790  18.7962  18.8612  24.1357  24.7494

          k = 0.3333-0.5774 0.0000 (  4826 PWs)   bands (ev):

   -76.5264 -76.5264 -69.8834 -39.8450 -39.8372 -39.8365 -39.8202 -39.8196
   -39.8113 -35.9309 -35.9302 -35.9296  -2.2839  -2.2680  -2.2595  -2.2195
    -2.2039  10.2191  13.0237  13.2406  14.6917  15.0292  15.4297  15.9107
    16.0725  16.5003  16.6276  16.7136  16.9455  17.0914  17.2309  17.9221
    18.0161  18.0595  18.4740  19.3490  22.6001  27.0610

          k = 0.3333-0.5774 0.2041 (  4864 PWs)   bands (ev):

   -76.5264 -76.5264 -69.8834 -39.8438 -39.8420 -39.8287 -39.8283 -39.8136
   -39.8136 -35.9308 -35.9305 -35.9295  -2.2789  -2.2758  -2.2567  -2.2197
    -2.2037  10.2287  12.7290  13.6178  14.5709  15.1364  15.5974  15.6465
    16.0762  16.5354  16.6115  16.6979  16.9721  17.1952  17.3653  17.7489
    17.8066  18.0790  18.7962  18.8612  24.1357  24.7494

 ------ SPIN DOWN ----------


          k = 0.0000 0.0000 0.0000 (  4909 PWs)   bands (ev):

   -74.9792 -74.9726 -66.6339 -38.3353 -38.3353 -38.3353 -38.3087 -38.3087
   -38.3087 -32.7584 -32.7584 -32.7584  -2.2812  -2.2812  -2.2812  -2.2268
    -2.2268   7.4381  15.5032  15.5032  15.5032  16.4364  16.4364  17.3972
    17.3972  17.3972  18.9921  18.9921  18.9921  19.6299  19.6299  20.0900
    20.0900  23.3119  23.6486  23.6486  23.6486  25.0315

          k = 0.0000 0.0000 0.2041 (  4846 PWs)   bands (ev):

   -74.9787 -74.9731 -66.6339 -38.3337 -38.3335 -38.3335 -38.3105 -38.3105
   -38.3103 -32.7586 -32.7583 -32.7583  -2.2819  -2.2779  -2.2779  -2.2243
    -2.2243   7.8093  14.9520  15.4759  15.4759  16.6247  16.6247  17.2343
    17.3411  17.3411  18.4728  18.7626  18.7626  19.6731  19.6731  20.0214
    20.0214  21.9821  23.4403  23.4403  23.4813  24.8629

          k = 0.0000 0.0000 0.4082 (  4813 PWs)   bands (ev):

   -74.9775 -74.9743 -66.6339 -38.3292 -38.3288 -38.3288 -38.3154 -38.3154
   -38.3151 -32.7592 -32.7581 -32.7581  -2.2837  -2.2723  -2.2723  -2.2184
    -2.2184   8.8429  13.3406  15.4651  15.4651  16.8967  16.9248  16.9248
    17.3173  17.3173  18.0703  18.3661  18.3661  19.6304  19.6304  19.9219
    19.9219  20.4866  23.1678  23.2931  23.2931  24.1527

          k = 0.0000 0.0000-0.6124 (  4850 PWs)   bands (ev):

   -74.9759 -74.9759 -66.6340 -38.3228 -38.3228 -38.3228 -38.3217 -38.3215
   -38.3215 -32.7595 -32.7581 -32.7581  -2.2847  -2.2700  -2.2700  -2.2149
    -2.2149   9.8182  12.0205  15.4713  15.4713  16.8576  17.0251  17.0251
    17.3717  17.3717  17.9588  18.1836  18.1836  19.5662  19.5662  19.8257
    19.8804  19.8804  23.1401  23.4112  23.4112  23.6607

          k = 0.0000 0.1925-0.0680 (  4846 PWs)   bands (ev):

   -74.9787 -74.9731 -66.6339 -38.3337 -38.3335 -38.3335 -38.3105 -38.3105
   -38.3103 -32.7586 -32.7583 -32.7583  -2.2819  -2.2779  -2.2779  -2.2243
    -2.2243   7.8093  14.9520  15.4759  15.4759  16.6247  16.6247  17.2343
    17.3411  17.3411  18.4728  18.7626  18.7626  19.6731  19.6731  20.0214
    20.0214  21.9822  23.4403  23.4403  23.4813  24.8629

          k = 0.0000 0.1925 0.1361 (  4857 PWs)   bands (ev):

   -74.9786 -74.9732 -66.6339 -38.3363 -38.3363 -38.3271 -38.3169 -38.3079
   -38.3079 -32.7589 -32.7582 -32.7582  -2.2871  -2.2741  -2.2741  -2.2273
    -2.2210   7.9310  14.7128  15.6383  15.6383  16.5991  16.6076  17.0074
    17.4129  17.4129  18.5432  18.5432  18.6890  19.6201  19.7025  19.9032
    20.0619  21.9977  22.3903  22.3903  24.0838  24.4083

          k = 0.0000 0.1925 0.3402 (  4850 PWs)   bands (ev):

   -74.9778 -74.9740 -66.6339 -38.3353 -38.3353 -38.3247 -38.3193 -38.3091
   -38.3091 -32.7593 -32.7582 -32.7580  -2.2890  -2.2696  -2.2679  -2.2263
    -2.2151   8.7405  13.8554  15.3127  15.7010  16.6149  16.8413  16.8446
    17.3247  17.4573  18.0896  18.1758  18.5815  19.5965  19.6903  19.7458
    19.9861  20.8347  21.5191  21.6809  23.6706  25.3726

          k = 0.0000 0.1925-0.6804 (  4842 PWs)   bands (ev):

   -74.9764 -74.9753 -66.6340 -38.3321 -38.3307 -38.3304 -38.3140 -38.3137
   -38.3123 -32.7594 -32.7583 -32.7580  -2.2847  -2.2707  -2.2655  -2.2216
    -2.2126   9.8691  12.5226  14.9041  15.6299  16.4769  16.9764  17.0930
    17.3973  17.5268  18.0073  18.0230  18.3075  19.5550  19.5932  19.7478
    19.8495  19.8860  21.2716  21.5746  23.4394  25.7805

          k = 0.0000 0.1925-0.4763 (  4842 PWs)   bands (ev):

   -74.9768 -74.9749 -66.6340 -38.3367 -38.3237 -38.3233 -38.3211 -38.3206
   -38.3077 -32.7592 -32.7583 -32.7581  -2.2811  -2.2730  -2.2682  -2.2184
    -2.2169   9.5223  12.9663  14.8979  15.4837  16.5355  17.0325  17.1024
    17.3001  17.5240  17.9809  18.1819  18.2581  19.5522  19.7258  19.7471
    19.8593  20.1434  21.2269  22.1041  23.3623  25.7772

          k = 0.0000 0.1925-0.2722 (  4832 PWs)   bands (ev):

   -74.9781 -74.9737 -66.6339 -38.3372 -38.3283 -38.3278 -38.3163 -38.3159
   -38.3071 -32.7589 -32.7582 -32.7582  -2.2828  -2.2744  -2.2731  -2.2228
    -2.2200   8.4025  14.2764  15.3846  15.3982  16.6246  16.9192  16.9811
    17.1752  17.4844  18.1830  18.3187  18.6073  19.5992  19.8030  19.8794
    19.9502  21.4466  21.5580  23.0527  23.4603  25.8135

          k = 0.0000 0.3849-0.1361 (  4813 PWs)   bands (ev):

   -74.9775 -74.9743 -66.6339 -38.3292 -38.3288 -38.3288 -38.3154 -38.3154
   -38.3151 -32.7592 -32.7581 -32.7581  -2.2837  -2.2723  -2.2723  -2.2184
    -2.2184   8.8429  13.3406  15.4651  15.4651  16.8967  16.9248  16.9248
    17.3172  17.3173  18.0703  18.3660  18.3661  19.6304  19.6304  19.9219
    19.9219  20.4866  23.1678  23.2931  23.2931  24.1527

          k = 0.0000 0.3849 0.0680 (  4850 PWs)   bands (ev):

   -74.9778 -74.9740 -66.6339 -38.3353 -38.3353 -38.3247 -38.3193 -38.3091
   -38.3091 -32.7593 -32.7582 -32.7580  -2.2890  -2.2696  -2.2679  -2.2263
    -2.2151   8.7405  13.8555  15.3127  15.7010  16.6149  16.8413  16.8446
    17.3247  17.4573  18.0896  18.1758  18.5815  19.5965  19.6903  19.7458
    19.9861  20.8347  21.5191  21.6809  23.6706  25.3726

          k = 0.0000 0.3849 0.2722 (  4852 PWs)   bands (ev):

   -74.9775 -74.9743 -66.6340 -38.3384 -38.3384 -38.3333 -38.3107 -38.3062
   -38.3062 -32.7598 -32.7579 -32.7579  -2.2993  -2.2604  -2.2604  -2.2338
    -2.2095   9.2718  13.4752  15.9813  15.9813  16.1743  16.1749  17.0371
    17.3939  17.3939  17.9724  17.9725  18.5948  19.4376  19.5862  19.6000
    19.9904  20.4308  20.6261  20.6261  23.2039  24.1188

          k = 0.0000 0.3849-0.7485 (  4853 PWs)   bands (ev):

   -74.9768 -74.9749 -66.6340 -38.3392 -38.3371 -38.3368 -38.3078 -38.3076
   -38.3051 -32.7599 -32.7580 -32.7578  -2.2976  -2.2600  -2.2572  -2.2339
    -2.2070  10.1648  12.9951  14.6659  15.8575  15.9986  16.9197  17.0536
    17.3257  17.6035  17.8164  17.9055  18.5426  19.4026  19.4895  19.6465
    19.8777  19.9557  20.1863  20.2283  23.4143  24.9758

          k = 0.0000 0.3849-0.5443 (  4826 PWs)   bands (ev):

   -74.9759 -74.9759 -66.6340 -38.3404 -38.3316 -38.3312 -38.3133 -38.3129
   -38.3039 -32.7592 -32.7586 -32.7579  -2.2852  -2.2693  -2.2607  -2.2265
    -2.2113  10.3304  13.3474  13.5265  15.7336  16.0426  16.9991  17.3523
    17.4010  17.5849  17.9319  18.0201  18.2261  19.4353  19.5978  19.6912
    19.8544  20.0683  20.1311  20.6766  23.4434  27.6472

          k = 0.0000 0.3849-0.3402 (  4842 PWs)   bands (ev):

   -74.9768 -74.9749 -66.6340 -38.3367 -38.3237 -38.3233 -38.3211 -38.3206
   -38.3077 -32.7592 -32.7583 -32.7581  -2.2811  -2.2730  -2.2682  -2.2184
    -2.2169   9.5223  12.9663  14.8979  15.4837  16.5355  17.0325  17.1024
    17.3001  17.5239  17.9809  18.1819  18.2581  19.5522  19.7258  19.7471
    19.8593  20.1434  21.2268  22.1041  23.3623  25.7757

          k = 0.0000-0.5774 0.2041 (  4850 PWs)   bands (ev):

   -74.9759 -74.9759 -66.6340 -38.3228 -38.3228 -38.3228 -38.3217 -38.3215
   -38.3215 -32.7595 -32.7581 -32.7581  -2.2847  -2.2700  -2.2700  -2.2149
    -2.2149   9.8182  12.0205  15.4713  15.4713  16.8576  17.0250  17.0250
    17.3717  17.3717  17.9589  18.1836  18.1836  19.5662  19.5662  19.8258
    19.8804  19.8804  23.1401  23.4112  23.4112  23.6607

          k = 0.0000-0.5774 0.4082 (  4842 PWs)   bands (ev):

   -74.9764 -74.9753 -66.6340 -38.3321 -38.3307 -38.3304 -38.3140 -38.3137
   -38.3123 -32.7594 -32.7583 -32.7580  -2.2847  -2.2707  -2.2655  -2.2216
    -2.2126   9.8691  12.5226  14.9041  15.6299  16.4769  16.9764  17.0930
    17.3973  17.5269  18.0073  18.0230  18.3075  19.5550  19.5932  19.7478
    19.8495  19.8860  21.2716  21.5746  23.4394  25.7805

          k = 0.0000-0.5774 0.6124 (  4853 PWs)   bands (ev):

   -74.9768 -74.9749 -66.6340 -38.3392 -38.3371 -38.3368 -38.3078 -38.3076
   -38.3051 -32.7599 -32.7580 -32.7578  -2.2976  -2.2600  -2.2572  -2.2339
    -2.2070  10.1648  12.9951  14.6659  15.8575  15.9986  16.9197  17.0536
    17.3257  17.6035  17.8164  17.9055  18.5426  19.4026  19.4895  19.6464
    19.8777  19.9557  20.1863  20.2283  23.4143  24.9758

          k = 0.0000-0.5774-0.4082 (  4824 PWs)   bands (ev):

   -74.9769 -74.9748 -66.6340 -38.3415 -38.3393 -38.3393 -38.3054 -38.3054
   -38.3024 -32.7603 -32.7577 -32.7577  -2.3054  -2.2536  -2.2536  -2.2396
    -2.2037  10.4604  12.6101  15.4505  15.7904  16.2259  16.2260  17.2424
    17.2424  17.3398  17.9257  17.9257  18.6367  19.1147  19.4766  19.5901
    19.8358  19.8358  19.8872  20.0902  23.1019  24.0745

          k = 0.1667 0.2887-0.2041 (  4850 PWs)   bands (ev):

   -74.9778 -74.9740 -66.6339 -38.3353 -38.3353 -38.3247 -38.3193 -38.3091
   -38.3091 -32.7593 -32.7582 -32.7580  -2.2890  -2.2696  -2.2679  -2.2263
    -2.2151   8.7405  13.8555  15.3127  15.7010  16.6149  16.8413  16.8446
    17.3247  17.4573  18.0896  18.1758  18.5815  19.5965  19.6903  19.7458
    19.9862  20.8347  21.5191  21.6809  23.6706  25.3726

          k = 0.1667 0.2887-0.0000 (  4832 PWs)   bands (ev):

   -74.9781 -74.9737 -66.6339 -38.3372 -38.3283 -38.3278 -38.3163 -38.3159
   -38.3071 -32.7589 -32.7582 -32.7582  -2.2828  -2.2744  -2.2731  -2.2228
    -2.2200   8.4025  14.2764  15.3846  15.3982  16.6247  16.9191  16.9811
    17.1752  17.4844  18.1830  18.3188  18.6073  19.5992  19.8030  19.8794
    19.9502  21.4466  21.5580  23.0527  23.4603  25.8143

          k = 0.1667 0.2887-0.8165 (  4844 PWs)   bands (ev):

   -74.9769 -74.9748 -66.6340 -38.3391 -38.3326 -38.3300 -38.3146 -38.3115
   -38.3055 -32.7594 -32.7583 -32.7579  -2.2885  -2.2694  -2.2612  -2.2273
    -2.2116   9.6334  13.3625  14.7042  15.4411  16.4267  16.9668  17.0792
    17.2230  17.6769  17.8740  17.9939  18.4637  19.5568  19.5948  19.7155
    19.8920  20.3167  20.4876  20.7744  24.4644  25.4460

          k = 0.1667 0.2887-0.6124 (  4864 PWs)   bands (ev):

   -74.9759 -74.9759 -66.6340 -38.3388 -38.3372 -38.3225 -38.3222 -38.3064
   -38.3064 -32.7591 -32.7588 -32.7578  -2.2803  -2.2772  -2.2579  -2.2267
    -2.2110  10.3398  12.9700  14.1192  15.2947  16.3108  17.0837  17.1030
    17.4064  17.6917  17.9255  17.9422  18.3208  19.5258  19.5617  19.6633
    19.8316  19.8808  20.3683  20.4145  24.6375  25.5897

          k = 0.1667-0.6736 0.1361 (  4842 PWs)   bands (ev):

   -74.9764 -74.9753 -66.6340 -38.3321 -38.3307 -38.3304 -38.3140 -38.3137
   -38.3123 -32.7594 -32.7583 -32.7580  -2.2847  -2.2707  -2.2655  -2.2216
    -2.2126   9.8691  12.5226  14.9041  15.6299  16.4770  16.9764  17.0930
    17.3973  17.5268  18.0074  18.0230  18.3075  19.5550  19.5932  19.7478
    19.8495  19.8860  21.2716  21.5746  23.4394  25.7805

          k = 0.1667-0.6736 0.3402 (  4842 PWs)   bands (ev):

   -74.9768 -74.9749 -66.6340 -38.3367 -38.3237 -38.3233 -38.3211 -38.3206
   -38.3077 -32.7592 -32.7583 -32.7581  -2.2811  -2.2730  -2.2682  -2.2184
    -2.2169   9.5223  12.9663  14.8979  15.4837  16.5355  17.0325  17.1024
    17.3001  17.5240  17.9809  18.1819  18.2581  19.5522  19.7258  19.7471
    19.8593  20.1434  21.2269  22.1041  23.3623  25.7767

          k = 0.1667-0.6736 0.5443 (  4844 PWs)   bands (ev):

   -74.9769 -74.9748 -66.6340 -38.3391 -38.3326 -38.3300 -38.3146 -38.3115
   -38.3055 -32.7594 -32.7583 -32.7579  -2.2885  -2.2694  -2.2612  -2.2273
    -2.2116   9.6334  13.3625  14.7042  15.4411  16.4267  16.9668  17.0792
    17.2230  17.6769  17.8740  17.9939  18.4637  19.5568  19.5948  19.7155
    19.8920  20.3167  20.4877  20.7744  24.4644  25.4460

          k = 0.1667-0.6736-0.4763 (  4853 PWs)   bands (ev):

   -74.9768 -74.9749 -66.6340 -38.3392 -38.3371 -38.3368 -38.3078 -38.3076
   -38.3051 -32.7599 -32.7580 -32.7578  -2.2976  -2.2600  -2.2572  -2.2339
    -2.2070  10.1648  12.9951  14.6659  15.8575  15.9986  16.9197  17.0536
    17.3257  17.6035  17.8163  17.9055  18.5426  19.4026  19.4895  19.6464
    19.8777  19.9557  20.1863  20.2283  23.4143  24.9758

          k = 0.1667-0.6736-0.2722 (  4852 PWs)   bands (ev):

   -74.9764 -74.9753 -66.6340 -38.3415 -38.3394 -38.3309 -38.3139 -38.3047
   -38.3032 -32.7597 -32.7584 -32.7577  -2.2925  -2.2666  -2.2536  -2.2332
    -2.2074  10.5530  13.0812  14.3597  14.8289  16.4182  17.0610  17.0881
    17.3057  17.6932  17.7985  17.9051  18.4796  19.4530  19.5395  19.6506
    19.7908  19.8931  19.9338  19.9715  24.3730  25.2867

          k = 0.1667-0.6736-0.0680 (  4864 PWs)   bands (ev):

   -74.9759 -74.9759 -66.6340 -38.3388 -38.3372 -38.3225 -38.3222 -38.3064
   -38.3064 -32.7591 -32.7588 -32.7578  -2.2803  -2.2772  -2.2579  -2.2267
    -2.2110  10.3398  12.9700  14.1192  15.2947  16.3109  17.0837  17.1030
    17.4064  17.6916  17.9255  17.9422  18.3208  19.5258  19.5617  19.6633
    19.8316  19.8808  20.3683  20.4145  24.6375  25.5897

          k = 0.3333-0.5774 0.0000 (  4826 PWs)   bands (ev):

   -74.9759 -74.9759 -66.6340 -38.3404 -38.3316 -38.3312 -38.3133 -38.3129
   -38.3039 -32.7592 -32.7586 -32.7579  -2.2852  -2.2693  -2.2607  -2.2265
    -2.2113  10.3304  13.3474  13.5265  15.7336  16.0426  16.9991  17.3522
    17.4010  17.5849  17.9319  18.0201  18.2261  19.4353  19.5978  19.6912
    19.8544  20.0683  20.1311  20.6766  23.4435  27.6472

          k = 0.3333-0.5774 0.2041 (  4864 PWs)   bands (ev):

   -74.9759 -74.9759 -66.6340 -38.3388 -38.3372 -38.3225 -38.3222 -38.3064
   -38.3064 -32.7591 -32.7588 -32.7578  -2.2803  -2.2772  -2.2579  -2.2267
    -2.2110  10.3398  12.9700  14.1192  15.2947  16.3109  17.0837  17.1030
    17.4064  17.6916  17.9255  17.9422  18.3208  19.5258  19.5617  19.6633
    19.8316  19.8808  20.3683  20.4145  24.6375  25.5897

     the Fermi energy is    19.3496 ev

!    total energy              =   -1524.77435417 Ry
     total all-electron energy =    -20474.055365 Ry
     estimated scf accuracy    <          6.6E-09 Ry
     smearing contrib. (-TS)   =      -0.00893355 Ry
     internal energy E=F+TS    =   -1524.76542063 Ry

     The total energy is F=E-TS. E is the sum of the following terms:
     one-electron contribution =    -441.52732690 Ry
     hartree contribution      =     270.94994164 Ry
     xc contribution           =    -137.83645816 Ry
     ewald contribution        =    -677.45861314 Ry
     one-center paw contrib.   =    -538.89296407 Ry

     total magnetization       =     5.34 Bohr mag/cell
     absolute magnetization    =     5.62 Bohr mag/cell

     convergence has been achieved in  28 iterations

     negative rho (up, down):  0.000E+00 9.934E-05

     Forces acting on atoms (cartesian axes, Ry/au):

     atom    1 type  2   force =     0.00000000    0.00000000    0.00000000
     atom    2 type  3   force =     0.00000000    0.00000000    0.00000000
     atom    3 type  1   force =    -0.00000000    0.00000000   -0.00000056
     atom    4 type  1   force =     0.00000000   -0.00000000    0.00000056

     Total force =     0.000001     Total SCF correction =     0.000001
     SCF correction compared to forces is large: reduce conv_thr to get better values


     Computing stress (Cartesian axis) and pressure


     negative rho (up, down):  0.000E+00 9.934E-05
          total   stress  (Ry/bohr**3)                   (kbar)     P=      141.21
   0.00095994   0.00000000   0.00000000          141.21        0.00        0.00
   0.00000000   0.00095994   0.00000000            0.00      141.21        0.00
   0.00000000  -0.00000000   0.00095992            0.00       -0.00      141.21


     Writing all to output data dir ./outdir/Co2FeSn.save/
 
     init_run     :      1.13s CPU      1.20s WALL (       1 calls)
     electrons    :     72.10s CPU     74.20s WALL (       1 calls)
     forces       :      0.34s CPU      0.34s WALL (       1 calls)
     stress       :      0.75s CPU      0.76s WALL (       1 calls)

     Called by init_run:
     wfcinit      :      0.69s CPU      0.72s WALL (       1 calls)
     potinit      :      0.19s CPU      0.21s WALL (       1 calls)
     hinit0       :      0.13s CPU      0.14s WALL (       1 calls)

     Called by electrons:
     c_bands      :     54.80s CPU     56.45s WALL (      28 calls)
     sum_band     :     10.72s CPU     11.09s WALL (      28 calls)
     v_of_rho     :      0.81s CPU      0.83s WALL (      29 calls)
     newd         :      1.65s CPU      1.66s WALL (      29 calls)
     PAW_pot      :      4.14s CPU      4.16s WALL (      29 calls)
     mix_rho      :      0.11s CPU      0.11s WALL (      28 calls)

     Called by c_bands:
     init_us_2    :      0.56s CPU      0.59s WALL (    3776 calls)
     init_us_2:cp :      0.55s CPU      0.58s WALL (    3776 calls)
     cegterg      :     52.39s CPU     53.89s WALL (    1792 calls)

     Called by *egterg:
     cdiaghg      :     11.48s CPU     11.58s WALL (    6910 calls)
     h_psi        :     33.34s CPU     34.68s WALL (    6974 calls)
     s_psi        :      1.44s CPU      1.47s WALL (    6974 calls)
     g_psi        :      0.17s CPU      0.17s WALL (    5118 calls)

     Called by h_psi:
     h_psi:calbec :      2.16s CPU      2.24s WALL (    6974 calls)
     vloc_psi     :     29.36s CPU     30.58s WALL (    6974 calls)
     add_vuspsi   :      1.59s CPU      1.63s WALL (    6974 calls)

     General routines
     calbec       :      2.95s CPU      3.06s WALL (    9086 calls)
     fft          :      0.29s CPU      0.30s WALL (     763 calls)
     ffts         :      0.02s CPU      0.02s WALL (     114 calls)
     fftw         :     32.44s CPU     33.84s WALL (  391548 calls)
     interpolate  :      0.04s CPU      0.04s WALL (      58 calls)
 
     Parallel routines
 
     PWSCF        :   1m15.26s CPU   1m17.94s WALL

 
   This run was terminated on:  23:30:36   8Oct2025            

=------------------------------------------------------------------------------=
   JOB DONE.
=------------------------------------------------------------------------------=
