
     Program PWSCF v.7.1 starts on  8Oct2025 at 23:40:43 

     This program is part of the open-source Quantum ESPRESSO suite
     for quantum simulation of materials; please cite
         "P. Giannozzi et al., J. Phys.:Condens. Matter 21 395502 (2009);
         "P. Giannozzi et al., J. Phys.:Condens. Matter 29 465901 (2017);
         "P. Giannozzi et al., J. Chem. Phys. 152 154105 (2020);
          URL http://www.quantum-espresso.org", 
     in publications or presentations arising from this work. More details at
     http://www.quantum-espresso.org/quote

     Parallel version (MPI), running on    20 processors

     MPI processes distributed on     1 nodes
     60491 MiB available memory on the printing compute node when the environment starts
 
     Reading input from Co2FeSn_125.in

     Current dimensions of program PWSCF are:
     Max number of different atomic species (ntypx) = 10
     Max number of k-points (npk) =  40000
     Max angular momentum in pseudopotentials (lmaxx) =  4
     file Co.pbe-spn-kjpaw_psl.0.3.1.UPF: wavefunction(s)  3P 3D renormalized
     file Fe.pbe-spn-kjpaw_psl.1.0.0.UPF: wavefunction(s)  3P 3D renormalized
     file Sn.pbe-dn-kjpaw_psl.1.0.0.UPF: wavefunction(s)  5S 5P 4D renormalized
 
     R & G space division:  proc/nbgrp/npool/nimage =      20
     Subspace diagonalization in iterative solution of the eigenvalue problem:
     a serial algorithm will be used

 
     Parallelization info
     --------------------
     sticks:   dense  smooth     PW     G-vecs:    dense   smooth      PW
     Min         209     104     29                 8975     3168     477
     Max         210     105     30                 8979     3169     482
     Sum        4195    2095    595               179543    63375    9577
 
     Using Slab Decomposition
 


     bravais-lattice index     =           14
     lattice parameter (alat)  =       7.8036  a.u.
     unit-cell volume          =     336.0264 (a.u.)^3
     number of atoms/cell      =            4
     number of atomic types    =            3
     number of electrons       =        64.00
     number of Kohn-Sham states=           38
     kinetic-energy cutoff     =     125.0000  Ry
     charge density cutoff     =    1000.0000  Ry
     scf convergence threshold =      1.0E-08
     mixing beta               =       0.2000
     number of iterations used =            8  plain     mixing
     Exchange-correlation= SLA  PW   PBX  PBC
                           (   1   4   3   4   0   0   0)

     celldm(1)=   7.803620  celldm(2)=   1.000000  celldm(3)=   1.000000
     celldm(4)=   0.500000  celldm(5)=   0.500000  celldm(6)=   0.500000

     crystal axes: (cart. coord. in units of alat)
               a(1) = (   1.000000   0.000000   0.000000 )  
               a(2) = (   0.500000   0.866025   0.000000 )  
               a(3) = (   0.500000   0.288675   0.816497 )  

     reciprocal axes: (cart. coord. in units 2 pi/alat)
               b(1) = (  1.000000 -0.577350 -0.408248 )  
               b(2) = (  0.000000  1.154701 -0.408248 )  
               b(3) = (  0.000000  0.000000  1.224745 )  


     PseudoPot. # 1 for Co read from file:
     <HPC_PATH>
     MD5 check sum: 3c0a43779828c046024e4f3be63f8e67
     Pseudo is Projector augmented-wave + core cor, Zval = 17.0
     Generated using &quot;atomic&quot; code by A. Dal Corso  v.6.2.2
     Shape of augmentation charge: PSQ
     Using radial grid of 1193 points,  6 beta functions with: 
                l(1) =   0
                l(2) =   0
                l(3) =   1
                l(4) =   1
                l(5) =   2
                l(6) =   2
     Q(r) pseudized with 0 coefficients 


     PseudoPot. # 2 for Fe read from file:
     <HPC_PATH>
     MD5 check sum: fc81f059e5c5069939230b1155715ae8
     Pseudo is Projector augmented-wave + core cor, Zval = 16.0
     Generated using &quot;atomic&quot; code by A. Dal Corso  v.6.3
     Shape of augmentation charge: PSQ
     Using radial grid of 1191 points,  6 beta functions with: 
                l(1) =   0
                l(2) =   0
                l(3) =   1
                l(4) =   1
                l(5) =   2
                l(6) =   2
     Q(r) pseudized with 0 coefficients 


     PseudoPot. # 3 for Sn read from file:
     <HPC_PATH>
     MD5 check sum: 67f11dec737d427557dc41ea34975807
     Pseudo is Projector augmented-wave + core cor, Zval = 14.0
     Generated using &quot;atomic&quot; code by A. Dal Corso  v.6.3
     Shape of augmentation charge: PSQ
     Using radial grid of 1243 points,  6 beta functions with: 
                l(1) =   0
                l(2) =   0
                l(3) =   1
                l(4) =   1
                l(5) =   2
                l(6) =   2
     Q(r) pseudized with 0 coefficients 


     atomic species   valence    mass     pseudopotential
        Co            17.00    58.93300     Co( 1.00)
        Fe            16.00    55.84500     Fe( 1.00)
        Sn            14.00   118.71000     Sn( 1.00)

     Starting magnetic structure 
     atomic species   magnetization
        Co           0.500
        Fe           0.500
        Sn           0.000

     12 Sym. Ops., with inversion, found



   Cartesian axes

     site n.     atom                  positions (alat units)
         1           Fe  tau(   1) = (   1.0000000   0.5773503   0.4082483  )
         2           Sn  tau(   2) = (   0.0000000   0.0000000   0.0000000  )
         3           Co  tau(   3) = (   0.5000000   0.2886751   0.2041241  )
         4           Co  tau(   4) = (   1.5000000   0.8660254   0.6123724  )

     number of k points=    32  Gaussian smearing, width (Ry)=  0.0200
                       cart. coord. in units 2pi/alat
        k(    1) = (   0.0000000   0.0000000   0.0000000), wk =   0.0046296
        k(    2) = (   0.0000000   0.0000000   0.2041241), wk =   0.0092593
        k(    3) = (   0.0000000   0.0000000   0.4082483), wk =   0.0092593
        k(    4) = (   0.0000000   0.0000000  -0.6123724), wk =   0.0046296
        k(    5) = (   0.0000000   0.1924501  -0.0680414), wk =   0.0277778
        k(    6) = (   0.0000000   0.1924501   0.1360828), wk =   0.0277778
        k(    7) = (   0.0000000   0.1924501   0.3402069), wk =   0.0277778
        k(    8) = (   0.0000000   0.1924501  -0.6804138), wk =   0.0277778
        k(    9) = (   0.0000000   0.1924501  -0.4762897), wk =   0.0277778
        k(   10) = (   0.0000000   0.1924501  -0.2721655), wk =   0.0277778
        k(   11) = (   0.0000000   0.3849002  -0.1360828), wk =   0.0277778
        k(   12) = (   0.0000000   0.3849002   0.0680414), wk =   0.0277778
        k(   13) = (   0.0000000   0.3849002   0.2721655), wk =   0.0277778
        k(   14) = (   0.0000000   0.3849002  -0.7484552), wk =   0.0277778
        k(   15) = (   0.0000000   0.3849002  -0.5443311), wk =   0.0277778
        k(   16) = (   0.0000000   0.3849002  -0.3402069), wk =   0.0277778
        k(   17) = (   0.0000000  -0.5773503   0.2041241), wk =   0.0138889
        k(   18) = (   0.0000000  -0.5773503   0.4082483), wk =   0.0277778
        k(   19) = (   0.0000000  -0.5773503   0.6123724), wk =   0.0277778
        k(   20) = (   0.0000000  -0.5773503  -0.4082483), wk =   0.0138889
        k(   21) = (   0.1666667   0.2886751  -0.2041241), wk =   0.0555556
        k(   22) = (   0.1666667   0.2886751  -0.0000000), wk =   0.0277778
        k(   23) = (   0.1666667   0.2886751  -0.8164966), wk =   0.0555556
        k(   24) = (   0.1666667   0.2886751  -0.6123724), wk =   0.0277778
        k(   25) = (   0.1666667  -0.6735753   0.1360828), wk =   0.0555556
        k(   26) = (   0.1666667  -0.6735753   0.3402069), wk =   0.0555556
        k(   27) = (   0.1666667  -0.6735753   0.5443311), wk =   0.0555556
        k(   28) = (   0.1666667  -0.6735753  -0.4762897), wk =   0.0555556
        k(   29) = (   0.1666667  -0.6735753  -0.2721655), wk =   0.0555556
        k(   30) = (   0.1666667  -0.6735753  -0.0680414), wk =   0.0555556
        k(   31) = (   0.3333333  -0.5773503   0.0000000), wk =   0.0277778
        k(   32) = (   0.3333333  -0.5773503   0.2041241), wk =   0.0277778

     Dense  grid:   179543 G-vectors     FFT dimensions: (  80,  80,  80)

     Smooth grid:    63375 G-vectors     FFT dimensions: (  60,  60,  60)

     Estimated max dynamical RAM per process >      60.42 MB

     Estimated total dynamical RAM >       1.18 GB

     Check: negative core charge=   -0.000003
     Generating pointlists ...
     new r_m :   0.2526 (alat units)  1.9712 (a.u.) for type    1
     new r_m :   0.2526 (alat units)  1.9712 (a.u.) for type    2
     new r_m :   0.2526 (alat units)  1.9712 (a.u.) for type    3

     Initial potential from superposition of free atoms

     starting charge      63.9976, renormalised to      64.0000
     Starting wfcs are   39 randomized atomic wfcs
     Checking if some PAW data can be deallocated... 

     total cpu time spent up to now is        2.1 secs

     per-process dynamical memory:   100.2 Mb

     Self-consistent Calculation

     iteration #  1     ecut=   125.00 Ry     beta= 0.20
     Davidson diagonalization with overlap
     ethr =  1.00E-02,  avg # of iterations =  4.6

     total cpu time spent up to now is        6.4 secs

     total energy              =   -1523.36349327 Ry
     estimated scf accuracy    <       2.81953039 Ry

     total magnetization       =     8.04 Bohr mag/cell
     absolute magnetization    =     8.55 Bohr mag/cell

     iteration #  2     ecut=   125.00 Ry     beta= 0.20
     Davidson diagonalization with overlap
     ethr =  4.41E-03,  avg # of iterations =  1.8

     negative rho (up, down):  0.000E+00 4.049E-05

     total cpu time spent up to now is        9.9 secs

     total energy              =   -1524.27312063 Ry
     estimated scf accuracy    <       2.00774924 Ry

     total magnetization       =     7.48 Bohr mag/cell
     absolute magnetization    =     8.27 Bohr mag/cell

     iteration #  3     ecut=   125.00 Ry     beta= 0.20
     Davidson diagonalization with overlap
     ethr =  3.14E-03,  avg # of iterations =  1.5

     negative rho (up, down):  0.000E+00 3.136E-04

     total cpu time spent up to now is       13.1 secs

     total energy              =   -1524.52934926 Ry
     estimated scf accuracy    <       2.29372072 Ry

     total magnetization       =     6.95 Bohr mag/cell
     absolute magnetization    =     7.72 Bohr mag/cell

     iteration #  4     ecut=   125.00 Ry     beta= 0.20
     Davidson diagonalization with overlap
     ethr =  3.14E-03,  avg # of iterations =  1.0

     negative rho (up, down):  0.000E+00 3.056E-04

     total cpu time spent up to now is       16.3 secs

     total energy              =   -1524.74738856 Ry
     estimated scf accuracy    <       0.08540447 Ry

     total magnetization       =     5.55 Bohr mag/cell
     absolute magnetization    =     6.41 Bohr mag/cell

     iteration #  5     ecut=   125.00 Ry     beta= 0.20
     Davidson diagonalization with overlap
     ethr =  1.33E-04,  avg # of iterations =  5.2

     negative rho (up, down):  0.000E+00 2.301E-04

     total cpu time spent up to now is       21.0 secs

     total energy              =   -1524.76332613 Ry
     estimated scf accuracy    <       0.03526611 Ry

     total magnetization       =     5.49 Bohr mag/cell
     absolute magnetization    =     6.09 Bohr mag/cell

     iteration #  6     ecut=   125.00 Ry     beta= 0.20
     Davidson diagonalization with overlap
     ethr =  5.51E-05,  avg # of iterations =  3.6

     negative rho (up, down):  0.000E+00 1.361E-04

     total cpu time spent up to now is       25.2 secs

     total energy              =   -1524.77087681 Ry
     estimated scf accuracy    <       0.00961091 Ry

     total magnetization       =     5.27 Bohr mag/cell
     absolute magnetization    =     5.75 Bohr mag/cell

     iteration #  7     ecut=   125.00 Ry     beta= 0.20
     Davidson diagonalization with overlap
     ethr =  1.50E-05,  avg # of iterations =  4.6

     negative rho (up, down):  0.000E+00 8.125E-05

     total cpu time spent up to now is       29.6 secs

     total energy              =   -1524.77668354 Ry
     estimated scf accuracy    <       0.02619718 Ry

     total magnetization       =     5.43 Bohr mag/cell
     absolute magnetization    =     5.88 Bohr mag/cell

     iteration #  8     ecut=   125.00 Ry     beta= 0.20
     Davidson diagonalization with overlap
     ethr =  1.50E-05,  avg # of iterations =  2.1

     negative rho (up, down):  0.000E+00 7.620E-05

     total cpu time spent up to now is       33.7 secs

     total energy              =   -1524.77616001 Ry
     estimated scf accuracy    <       0.00978330 Ry

     total magnetization       =     5.33 Bohr mag/cell
     absolute magnetization    =     5.73 Bohr mag/cell

     iteration #  9     ecut=   125.00 Ry     beta= 0.20
     Davidson diagonalization with overlap
     ethr =  1.50E-05,  avg # of iterations =  2.6

     negative rho (up, down):  0.000E+00 7.328E-05

     total cpu time spent up to now is       37.4 secs

     total energy              =   -1524.77718152 Ry
     estimated scf accuracy    <       0.00326952 Ry

     total magnetization       =     5.37 Bohr mag/cell
     absolute magnetization    =     5.72 Bohr mag/cell

     iteration # 10     ecut=   125.00 Ry     beta= 0.20
     Davidson diagonalization with overlap
     ethr =  5.11E-06,  avg # of iterations =  3.2

     negative rho (up, down):  0.000E+00 7.317E-05

     total cpu time spent up to now is       41.2 secs

     total energy              =   -1524.77782203 Ry
     estimated scf accuracy    <       0.00185441 Ry

     total magnetization       =     5.38 Bohr mag/cell
     absolute magnetization    =     5.72 Bohr mag/cell

     iteration # 11     ecut=   125.00 Ry     beta= 0.20
     Davidson diagonalization with overlap
     ethr =  2.90E-06,  avg # of iterations =  2.0

     negative rho (up, down):  0.000E+00 7.261E-05

     total cpu time spent up to now is       44.6 secs

     total energy              =   -1524.77782200 Ry
     estimated scf accuracy    <       0.00216750 Ry

     total magnetization       =     5.38 Bohr mag/cell
     absolute magnetization    =     5.71 Bohr mag/cell

     iteration # 12     ecut=   125.00 Ry     beta= 0.20
     Davidson diagonalization with overlap
     ethr =  2.90E-06,  avg # of iterations =  1.3

     negative rho (up, down):  0.000E+00 7.216E-05

     total cpu time spent up to now is       47.8 secs

     total energy              =   -1524.77788383 Ry
     estimated scf accuracy    <       0.00029228 Ry

     total magnetization       =     5.36 Bohr mag/cell
     absolute magnetization    =     5.68 Bohr mag/cell

     iteration # 13     ecut=   125.00 Ry     beta= 0.20
     Davidson diagonalization with overlap
     ethr =  4.57E-07,  avg # of iterations =  4.6

     negative rho (up, down):  0.000E+00 7.169E-05

     total cpu time spent up to now is       52.7 secs

     total energy              =   -1524.77804048 Ry
     estimated scf accuracy    <       0.00028055 Ry

     total magnetization       =     5.32 Bohr mag/cell
     absolute magnetization    =     5.61 Bohr mag/cell

     iteration # 14     ecut=   125.00 Ry     beta= 0.20
     Davidson diagonalization with overlap
     ethr =  4.38E-07,  avg # of iterations =  2.8

     negative rho (up, down):  0.000E+00 7.206E-05

     total cpu time spent up to now is       56.6 secs

     total energy              =   -1524.77810764 Ry
     estimated scf accuracy    <       0.00018281 Ry

     total magnetization       =     5.33 Bohr mag/cell
     absolute magnetization    =     5.62 Bohr mag/cell

     iteration # 15     ecut=   125.00 Ry     beta= 0.20
     Davidson diagonalization with overlap
     ethr =  2.86E-07,  avg # of iterations =  3.2

     negative rho (up, down):  0.000E+00 7.235E-05

     total cpu time spent up to now is       60.6 secs

     total energy              =   -1524.77811806 Ry
     estimated scf accuracy    <       0.00052718 Ry

     total magnetization       =     5.36 Bohr mag/cell
     absolute magnetization    =     5.65 Bohr mag/cell

     iteration # 16     ecut=   125.00 Ry     beta= 0.20
     Davidson diagonalization with overlap
     ethr =  2.86E-07,  avg # of iterations =  1.0

     negative rho (up, down):  0.000E+00 7.231E-05

     total cpu time spent up to now is       63.8 secs

     total energy              =   -1524.77811067 Ry
     estimated scf accuracy    <       0.00045159 Ry

     total magnetization       =     5.35 Bohr mag/cell
     absolute magnetization    =     5.65 Bohr mag/cell

     iteration # 17     ecut=   125.00 Ry     beta= 0.20
     Davidson diagonalization with overlap
     ethr =  2.86E-07,  avg # of iterations =  1.0

     negative rho (up, down):  0.000E+00 7.233E-05

     total cpu time spent up to now is       67.0 secs

     total energy              =   -1524.77809734 Ry
     estimated scf accuracy    <       0.00038082 Ry

     total magnetization       =     5.35 Bohr mag/cell
     absolute magnetization    =     5.65 Bohr mag/cell

     iteration # 18     ecut=   125.00 Ry     beta= 0.20
     Davidson diagonalization with overlap
     ethr =  2.86E-07,  avg # of iterations =  1.0

     negative rho (up, down):  0.000E+00 7.261E-05

     total cpu time spent up to now is       70.1 secs

     total energy              =   -1524.77807115 Ry
     estimated scf accuracy    <       0.00026711 Ry

     total magnetization       =     5.35 Bohr mag/cell
     absolute magnetization    =     5.64 Bohr mag/cell

     iteration # 19     ecut=   125.00 Ry     beta= 0.20
     Davidson diagonalization with overlap
     ethr =  2.86E-07,  avg # of iterations =  1.0

     negative rho (up, down):  0.000E+00 7.199E-05

     total cpu time spent up to now is       73.3 secs

     total energy              =   -1524.77807503 Ry
     estimated scf accuracy    <       0.00013284 Ry

     total magnetization       =     5.35 Bohr mag/cell
     absolute magnetization    =     5.65 Bohr mag/cell

     iteration # 20     ecut=   125.00 Ry     beta= 0.20
     Davidson diagonalization with overlap
     ethr =  2.08E-07,  avg # of iterations =  2.3

     negative rho (up, down):  0.000E+00 7.200E-05

     total cpu time spent up to now is       76.8 secs

     total energy              =   -1524.77809254 Ry
     estimated scf accuracy    <       0.00000379 Ry

     total magnetization       =     5.35 Bohr mag/cell
     absolute magnetization    =     5.63 Bohr mag/cell

     iteration # 21     ecut=   125.00 Ry     beta= 0.20
     Davidson diagonalization with overlap
     ethr =  5.92E-09,  avg # of iterations =  6.2

     negative rho (up, down):  0.000E+00 7.189E-05

     total cpu time spent up to now is       82.7 secs

     total energy              =   -1524.77809543 Ry
     estimated scf accuracy    <       0.00000455 Ry

     total magnetization       =     5.35 Bohr mag/cell
     absolute magnetization    =     5.63 Bohr mag/cell

     iteration # 22     ecut=   125.00 Ry     beta= 0.20
     Davidson diagonalization with overlap
     ethr =  5.92E-09,  avg # of iterations =  4.9

     negative rho (up, down):  0.000E+00 7.248E-05

     total cpu time spent up to now is       88.2 secs

     total energy              =   -1524.77809409 Ry
     estimated scf accuracy    <       0.00002033 Ry

     total magnetization       =     5.34 Bohr mag/cell
     absolute magnetization    =     5.62 Bohr mag/cell

     iteration # 23     ecut=   125.00 Ry     beta= 0.20
     Davidson diagonalization with overlap
     ethr =  5.92E-09,  avg # of iterations =  4.9

     negative rho (up, down):  0.000E+00 7.269E-05

     total cpu time spent up to now is       93.7 secs

     total energy              =   -1524.77809863 Ry
     estimated scf accuracy    <       0.00000535 Ry

     total magnetization       =     5.34 Bohr mag/cell
     absolute magnetization    =     5.62 Bohr mag/cell

     iteration # 24     ecut=   125.00 Ry     beta= 0.20
     Davidson diagonalization with overlap
     ethr =  5.92E-09,  avg # of iterations =  2.7

     negative rho (up, down):  0.000E+00 7.273E-05

     total cpu time spent up to now is       97.5 secs

     total energy              =   -1524.77809955 Ry
     estimated scf accuracy    <       0.00000023 Ry

     total magnetization       =     5.34 Bohr mag/cell
     absolute magnetization    =     5.63 Bohr mag/cell

     iteration # 25     ecut=   125.00 Ry     beta= 0.20
     Davidson diagonalization with overlap
     ethr =  3.58E-10,  avg # of iterations =  4.8

     negative rho (up, down):  0.000E+00 7.276E-05

     total cpu time spent up to now is      102.7 secs

     total energy              =   -1524.77809971 Ry
     estimated scf accuracy    <       0.00000036 Ry

     total magnetization       =     5.34 Bohr mag/cell
     absolute magnetization    =     5.62 Bohr mag/cell

     iteration # 26     ecut=   125.00 Ry     beta= 0.20
     Davidson diagonalization with overlap
     ethr =  3.58E-10,  avg # of iterations =  1.0

     negative rho (up, down):  0.000E+00 7.277E-05

     total cpu time spent up to now is      105.9 secs

     total energy              =   -1524.77809967 Ry
     estimated scf accuracy    <       0.00000024 Ry

     total magnetization       =     5.34 Bohr mag/cell
     absolute magnetization    =     5.62 Bohr mag/cell

     iteration # 27     ecut=   125.00 Ry     beta= 0.20
     Davidson diagonalization with overlap
     ethr =  3.58E-10,  avg # of iterations =  1.6

     negative rho (up, down):  0.000E+00 7.277E-05

     total cpu time spent up to now is      109.3 secs

     total energy              =   -1524.77809969 Ry
     estimated scf accuracy    <       0.00000002 Ry

     total magnetization       =     5.34 Bohr mag/cell
     absolute magnetization    =     5.62 Bohr mag/cell

     iteration # 28     ecut=   125.00 Ry     beta= 0.20
     Davidson diagonalization with overlap
     ethr =  3.77E-11,  avg # of iterations =  4.7

     negative rho (up, down):  0.000E+00 7.277E-05

     total cpu time spent up to now is      113.9 secs

     total energy              =   -1524.77809970 Ry
     estimated scf accuracy    <       0.00000002 Ry

     total magnetization       =     5.34 Bohr mag/cell
     absolute magnetization    =     5.62 Bohr mag/cell

     iteration # 29     ecut=   125.00 Ry     beta= 0.20
     Davidson diagonalization with overlap
     ethr =  2.81E-11,  avg # of iterations =  3.1

     negative rho (up, down):  0.000E+00 7.276E-05
 
     Magnetic moment per site  (integrated on atomic sphere of radius R)
     atom   1 (R=0.253)  charge= 14.4761  magn=  2.8200
     atom   2 (R=0.253)  charge= 11.1695  magn= -0.0081
     atom   3 (R=0.253)  charge= 15.7977  magn=  1.2987
     atom   4 (R=0.253)  charge= 15.7977  magn=  1.2987

     total cpu time spent up to now is      117.7 secs

     End of self-consistent calculation

 ------ SPIN UP ------------


          k = 0.0000 0.0000 0.0000 (  7823 PWs)   bands (ev):

   -76.5284 -76.5223 -69.8825 -39.8396 -39.8396 -39.8396 -39.8153 -39.8153
   -39.8153 -35.9296 -35.9296 -35.9296  -2.2807  -2.2807  -2.2807  -2.2211
    -2.2211   7.3703  14.7411  14.7411  14.9328  14.9328  14.9328  15.6495
    15.6495  15.6495  17.2165  17.2165  17.7745  17.7745  17.8429  17.8429
    17.8429  22.9789  23.2619  23.2619  23.2619  24.2607

          k = 0.0000 0.0000 0.2041 (  7919 PWs)   bands (ev):

   -76.5280 -76.5227 -69.8825 -39.8384 -39.8381 -39.8381 -39.8170 -39.8170
   -39.8167 -35.9299 -35.9295 -35.9295  -2.2814  -2.2774  -2.2774  -2.2184
    -2.2184   7.7428  14.4887  14.4887  14.5052  15.3568  15.3568  15.5660
    15.6341  15.6341  17.1846  17.1846  17.4856  17.5541  17.5541  17.8813
    17.8813  20.8518  22.6830  22.6830  23.1144  24.4252

          k = 0.0000 0.0000 0.4082 (  7937 PWs)   bands (ev):

   -76.5268 -76.5238 -69.8826 -39.8342 -39.8338 -39.8338 -39.8215 -39.8215
   -39.8212 -35.9303 -35.9293 -35.9293  -2.2831  -2.2718  -2.2718  -2.2122
    -2.2122   8.7814  13.0907  14.3527  14.3527  15.4682  15.4941  15.4941
    16.0126  16.0126  17.0702  17.0702  17.1440  17.3076  17.3076  17.7554
    17.7554  18.8920  22.2827  22.2827  22.8655  23.5719

          k = 0.0000 0.0000-0.6124 (  7954 PWs)   bands (ev):

   -76.5253 -76.5253 -69.8826 -39.8285 -39.8285 -39.8284 -39.8271 -39.8270
   -39.8270 -35.9306 -35.9292 -35.9292  -2.2840  -2.2694  -2.2694  -2.2087
    -2.2087   9.7742  11.8185  14.3239  14.3239  15.4811  15.4811  15.5201
    16.2881  16.2881  16.9843  16.9843  17.1594  17.2495  17.2495  17.6165
    17.6165  18.0164  22.2718  22.2718  22.8137  23.0471

          k = 0.0000 0.1925-0.0680 (  7919 PWs)   bands (ev):

   -76.5280 -76.5227 -69.8825 -39.8384 -39.8381 -39.8381 -39.8170 -39.8170
   -39.8167 -35.9298 -35.9295 -35.9295  -2.2814  -2.2774  -2.2774  -2.2184
    -2.2184   7.7428  14.4887  14.4887  14.5052  15.3568  15.3568  15.5660
    15.6341  15.6341  17.1846  17.1846  17.4856  17.5541  17.5541  17.8813
    17.8813  20.8518  22.6830  22.6830  23.1144  24.4252

          k = 0.0000 0.1925 0.1361 (  7927 PWs)   bands (ev):

   -76.5279 -76.5228 -69.8825 -39.8407 -39.8407 -39.8322 -39.8228 -39.8145
   -39.8145 -35.9301 -35.9294 -35.9294  -2.2866  -2.2737  -2.2737  -2.2213
    -2.2152   7.8643  13.9076  14.9013  15.1044  15.1044  15.3193  15.4000
    15.6910  15.6910  17.0537  17.2604  17.4510  17.5090  17.5090  17.7663
    17.9261  21.3581  21.3703  21.3703  23.4250  23.4958

          k = 0.0000 0.1925 0.3402 (  7927 PWs)   bands (ev):

   -76.5271 -76.5235 -69.8826 -39.8399 -39.8399 -39.8300 -39.8250 -39.8156
   -39.8156 -35.9304 -35.9293 -35.9292  -2.2886  -2.2692  -2.2675  -2.2200
    -2.2091   8.6736  13.3311  14.5423  14.7549  15.2849  15.4724  15.6273
    15.8164  15.9074  16.8874  17.0839  17.2330  17.2464  17.3231  17.7157
    17.8959  19.3872  20.5324  20.5390  22.8875  24.6628

          k = 0.0000 0.1925-0.6804 (  7917 PWs)   bands (ev):

   -76.5258 -76.5248 -69.8826 -39.8369 -39.8358 -39.8353 -39.8202 -39.8198
   -39.8185 -35.9304 -35.9294 -35.9291  -2.2841  -2.2702  -2.2650  -2.2153
    -2.2063   9.8011  12.2978  14.0490  14.5468  15.3365  15.4767  15.5896
    16.2560  16.3319  16.8069  16.8184  17.0873  17.1673  17.3618  17.6942
    17.7048  18.1243  19.9824  20.4050  22.7203  25.3038

          k = 0.0000 0.1925-0.4763 (  7912 PWs)   bands (ev):

   -76.5262 -76.5244 -69.8826 -39.8411 -39.8294 -39.8287 -39.8268 -39.8261
   -39.8143 -35.9303 -35.9295 -35.9292  -2.2805  -2.2724  -2.2678  -2.2122
    -2.2105   9.4567  12.6974  14.1957  14.3458  15.2843  15.4435  15.6530
    16.1683  16.2703  16.7557  16.9062  17.0321  17.2235  17.2386  17.6935
    17.9416  18.4620  19.8730  21.0567  22.8079  25.2273

          k = 0.0000 0.1925-0.2722 (  7924 PWs)   bands (ev):

   -76.5274 -76.5233 -69.8826 -39.8416 -39.8334 -39.8328 -39.8224 -39.8218
   -39.8137 -35.9301 -35.9294 -35.9294  -2.2823  -2.2740  -2.2726  -2.2165
    -2.2140   8.3373  13.7707  14.2815  14.8928  15.1449  15.5110  15.5134
    15.7724  15.8242  16.9910  17.2353  17.2415  17.2688  17.3442  17.7066
    18.0203  20.1581  20.2254  22.2953  23.1708  25.1635

          k = 0.0000 0.3849-0.1361 (  7937 PWs)   bands (ev):

   -76.5268 -76.5238 -69.8826 -39.8342 -39.8338 -39.8338 -39.8215 -39.8215
   -39.8212 -35.9303 -35.9293 -35.9293  -2.2831  -2.2718  -2.2718  -2.2122
    -2.2122   8.7814  13.0907  14.3527  14.3527  15.4682  15.4941  15.4941
    16.0126  16.0126  17.0702  17.0702  17.1440  17.3076  17.3076  17.7555
    17.7555  18.8920  22.2827  22.2827  22.8655  23.5719

          k = 0.0000 0.3849 0.0680 (  7927 PWs)   bands (ev):

   -76.5271 -76.5235 -69.8826 -39.8399 -39.8399 -39.8300 -39.8250 -39.8156
   -39.8156 -35.9304 -35.9293 -35.9292  -2.2886  -2.2692  -2.2675  -2.2200
    -2.2091   8.6736  13.3311  14.5423  14.7549  15.2849  15.4724  15.6273
    15.8164  15.9074  16.8874  17.0839  17.2330  17.2464  17.3231  17.7157
    17.8959  19.3872  20.5324  20.5390  22.8875  24.6627

          k = 0.0000 0.3849 0.2722 (  7920 PWs)   bands (ev):

   -76.5268 -76.5238 -69.8826 -39.8428 -39.8428 -39.8378 -39.8170 -39.8129
   -39.8129 -35.9310 -35.9290 -35.9290  -2.2988  -2.2600  -2.2600  -2.2274
    -2.2034   9.1911  12.9164  14.8315  15.3451  15.3923  15.4976  15.4976
    15.8661  15.8661  16.6032  17.0409  17.0409  17.1684  17.3066  17.7501
    17.7720  18.9566  19.2572  19.2572  22.3801  23.0233

          k = 0.0000 0.3849-0.7485 (  7949 PWs)   bands (ev):

   -76.5262 -76.5244 -69.8826 -39.8433 -39.8417 -39.8413 -39.8144 -39.8142
   -39.8119 -35.9310 -35.9291 -35.9289  -2.2971  -2.2596  -2.2569  -2.2277
    -2.2008  10.0446  12.6704  14.1254  15.0291  15.1728  15.5383  15.7546
    15.9667  16.1705  16.6900  16.8872  16.9606  17.0623  17.4115  17.6391
    17.8225  18.2115  18.4512  18.7363  22.5256  24.1167

          k = 0.0000 0.3849-0.5443 (  7942 PWs)   bands (ev):

   -76.5253 -76.5253 -69.8826 -39.8445 -39.8367 -39.8360 -39.8197 -39.8190
   -39.8109 -35.9303 -35.9297 -35.9290  -2.2847  -2.2688  -2.2604  -2.2203
    -2.2048  10.2191  13.0234  13.2403  14.6914  15.0290  15.4296  15.9107
    16.0724  16.4999  16.6272  16.7132  16.9453  17.0911  17.2307  17.9219
    18.0161  18.0597  18.4738  19.3487  22.5999  27.0607

          k = 0.0000 0.3849-0.3402 (  7912 PWs)   bands (ev):

   -76.5262 -76.5244 -69.8826 -39.8411 -39.8294 -39.8287 -39.8268 -39.8261
   -39.8143 -35.9303 -35.9295 -35.9292  -2.2805  -2.2724  -2.2678  -2.2122
    -2.2105   9.4567  12.6974  14.1957  14.3458  15.2843  15.4435  15.6530
    16.1683  16.2703  16.7558  16.9062  17.0321  17.2235  17.2386  17.6935
    17.9416  18.4620  19.8730  21.0567  22.8079  25.2256

          k = 0.0000-0.5774 0.2041 (  7954 PWs)   bands (ev):

   -76.5253 -76.5253 -69.8826 -39.8285 -39.8285 -39.8284 -39.8271 -39.8270
   -39.8270 -35.9306 -35.9292 -35.9292  -2.2840  -2.2694  -2.2694  -2.2087
    -2.2087   9.7742  11.8185  14.3239  14.3239  15.4811  15.4811  15.5201
    16.2880  16.2881  16.9844  16.9844  17.1594  17.2495  17.2495  17.6165
    17.6165  18.0164  22.2718  22.2718  22.8137  23.0471

          k = 0.0000-0.5774 0.4082 (  7917 PWs)   bands (ev):

   -76.5258 -76.5248 -69.8826 -39.8369 -39.8358 -39.8353 -39.8202 -39.8198
   -39.8185 -35.9304 -35.9294 -35.9291  -2.2841  -2.2702  -2.2650  -2.2153
    -2.2063   9.8011  12.2978  14.0490  14.5468  15.3365  15.4767  15.5896
    16.2560  16.3319  16.8069  16.8184  17.0873  17.1673  17.3618  17.6942
    17.7048  18.1242  19.9824  20.4050  22.7203  25.3038

          k = 0.0000-0.5774 0.6124 (  7949 PWs)   bands (ev):

   -76.5262 -76.5244 -69.8826 -39.8433 -39.8417 -39.8413 -39.8144 -39.8142
   -39.8119 -35.9310 -35.9291 -35.9289  -2.2971  -2.2596  -2.2569  -2.2277
    -2.2008  10.0446  12.6704  14.1254  15.0291  15.1728  15.5383  15.7546
    15.9667  16.1705  16.6900  16.8872  16.9606  17.0623  17.4115  17.6391
    17.8226  18.2115  18.4512  18.7363  22.5256  24.1167

          k = 0.0000-0.5774-0.4082 (  7912 PWs)   bands (ev):

   -76.5263 -76.5243 -69.8826 -39.8453 -39.8438 -39.8438 -39.8122 -39.8122
   -39.8095 -35.9314 -35.9288 -35.9288  -2.3050  -2.2533  -2.2533  -2.2334
    -2.1975  10.2870  12.4129  14.5419  14.8659  15.6768  15.6768  15.8904
    16.0365  16.0365  16.0539  16.9597  17.1516  17.1516  17.3650  17.6140
    17.7421  18.0604  18.0604  18.1871  22.2406  22.9182

          k = 0.1667 0.2887-0.2041 (  7927 PWs)   bands (ev):

   -76.5271 -76.5235 -69.8826 -39.8399 -39.8399 -39.8300 -39.8250 -39.8156
   -39.8156 -35.9304 -35.9293 -35.9292  -2.2886  -2.2692  -2.2675  -2.2200
    -2.2091   8.6736  13.3311  14.5422  14.7549  15.2849  15.4724  15.6273
    15.8164  15.9074  16.8874  17.0839  17.2330  17.2464  17.3231  17.7157
    17.8959  19.3872  20.5324  20.5390  22.8875  24.6628

          k = 0.1667 0.2887-0.0000 (  7924 PWs)   bands (ev):

   -76.5274 -76.5233 -69.8826 -39.8416 -39.8334 -39.8328 -39.8224 -39.8218
   -39.8137 -35.9301 -35.9294 -35.9294  -2.2823  -2.2740  -2.2726  -2.2165
    -2.2140   8.3373  13.7707  14.2815  14.8928  15.1449  15.5110  15.5134
    15.7724  15.8242  16.9910  17.2353  17.2415  17.2688  17.3442  17.7066
    18.0203  20.1581  20.2254  22.2953  23.1708  25.1633

          k = 0.1667 0.2887-0.8165 (  7948 PWs)   bands (ev):

   -76.5263 -76.5243 -69.8826 -39.8434 -39.8373 -39.8350 -39.8208 -39.8178
   -39.8122 -35.9305 -35.9294 -35.9290  -2.2880  -2.2688  -2.2608  -2.2210
    -2.2054   9.5530  12.9326  14.2004  14.5814  15.2103  15.5737  15.7714
    15.8576  16.2381  16.6766  16.8874  16.9687  17.2266  17.2628  17.7251
    17.9416  18.8054  18.9353  19.3861  23.9165  24.6882

          k = 0.1667 0.2887-0.6124 (  7930 PWs)   bands (ev):

   -76.5253 -76.5253 -69.8826 -39.8433 -39.8414 -39.8281 -39.8278 -39.8131
   -39.8131 -35.9302 -35.9299 -35.9289  -2.2798  -2.2767  -2.2576  -2.2205
    -2.2045  10.2288  12.7288  13.6175  14.5707  15.1363  15.5975  15.6464
    16.0762  16.5351  16.6112  16.6977  16.9720  17.1950  17.3652  17.7489
    17.8065  18.0791  18.7960  18.8610  24.1356  24.7493

          k = 0.1667-0.6736 0.1361 (  7917 PWs)   bands (ev):

   -76.5258 -76.5248 -69.8826 -39.8369 -39.8358 -39.8353 -39.8202 -39.8198
   -39.8185 -35.9304 -35.9294 -35.9291  -2.2841  -2.2702  -2.2650  -2.2153
    -2.2063   9.8011  12.2978  14.0490  14.5468  15.3365  15.4767  15.5896
    16.2560  16.3319  16.8069  16.8184  17.0873  17.1673  17.3618  17.6942
    17.7048  18.1242  19.9823  20.4050  22.7203  25.3038

          k = 0.1667-0.6736 0.3402 (  7912 PWs)   bands (ev):

   -76.5262 -76.5244 -69.8826 -39.8411 -39.8294 -39.8287 -39.8268 -39.8261
   -39.8143 -35.9303 -35.9295 -35.9292  -2.2805  -2.2724  -2.2678  -2.2122
    -2.2105   9.4567  12.6974  14.1957  14.3458  15.2843  15.4435  15.6530
    16.1683  16.2703  16.7558  16.9062  17.0321  17.2235  17.2386  17.6936
    17.9416  18.4620  19.8729  21.0567  22.8079  25.2249

          k = 0.1667-0.6736 0.5443 (  7948 PWs)   bands (ev):

   -76.5263 -76.5243 -69.8826 -39.8434 -39.8373 -39.8350 -39.8208 -39.8178
   -39.8122 -35.9305 -35.9294 -35.9290  -2.2880  -2.2688  -2.2608  -2.2210
    -2.2054   9.5530  12.9326  14.2004  14.5814  15.2103  15.5737  15.7714
    15.8576  16.2381  16.6766  16.8874  16.9687  17.2266  17.2628  17.7251
    17.9416  18.8054  18.9353  19.3861  23.9165  24.6882

          k = 0.1667-0.6736-0.4763 (  7949 PWs)   bands (ev):

   -76.5262 -76.5244 -69.8826 -39.8433 -39.8417 -39.8413 -39.8144 -39.8142
   -39.8119 -35.9310 -35.9291 -35.9289  -2.2971  -2.2596  -2.2569  -2.2277
    -2.2008  10.0446  12.6704  14.1254  15.0291  15.1728  15.5383  15.7546
    15.9667  16.1705  16.6900  16.8872  16.9606  17.0623  17.4115  17.6391
    17.8226  18.2115  18.4512  18.7363  22.5256  24.1167

          k = 0.1667-0.6736-0.2722 (  7960 PWs)   bands (ev):

   -76.5258 -76.5248 -69.8826 -39.8457 -39.8435 -39.8360 -39.8201 -39.8115
   -39.8102 -35.9308 -35.9294 -35.9288  -2.2920  -2.2662  -2.2533  -2.2270
    -2.2010  10.3939  12.8360  13.8599  14.4594  15.2994  15.5984  15.7024
    15.8951  16.2902  16.6784  16.7274  17.1214  17.2526  17.4657  17.4745
    17.8533  18.1040  18.1742  18.1945  23.6923  24.4339

          k = 0.1667-0.6736-0.0680 (  7930 PWs)   bands (ev):

   -76.5253 -76.5253 -69.8826 -39.8433 -39.8414 -39.8281 -39.8278 -39.8131
   -39.8131 -35.9302 -35.9299 -35.9289  -2.2798  -2.2767  -2.2576  -2.2205
    -2.2045  10.2288  12.7287  13.6175  14.5707  15.1363  15.5975  15.6464
    16.0762  16.5351  16.6112  16.6977  16.9720  17.1950  17.3652  17.7489
    17.8066  18.0791  18.7960  18.8610  24.1356  24.7493

          k = 0.3333-0.5774 0.0000 (  7942 PWs)   bands (ev):

   -76.5253 -76.5253 -69.8826 -39.8445 -39.8367 -39.8360 -39.8196 -39.8190
   -39.8109 -35.9303 -35.9297 -35.9290  -2.2847  -2.2688  -2.2604  -2.2203
    -2.2048  10.2191  13.0234  13.2403  14.6914  15.0290  15.4296  15.9107
    16.0724  16.4999  16.6272  16.7132  16.9453  17.0911  17.2307  17.9219
    18.0161  18.0597  18.4737  19.3487  22.5999  27.0607

          k = 0.3333-0.5774 0.2041 (  7930 PWs)   bands (ev):

   -76.5253 -76.5253 -69.8826 -39.8433 -39.8414 -39.8281 -39.8278 -39.8131
   -39.8131 -35.9302 -35.9299 -35.9289  -2.2798  -2.2767  -2.2576  -2.2205
    -2.2045  10.2288  12.7287  13.6175  14.5707  15.1363  15.5975  15.6464
    16.0762  16.5351  16.6112  16.6977  16.9720  17.1950  17.3652  17.7489
    17.8066  18.0791  18.7960  18.8610  24.1356  24.7493

 ------ SPIN DOWN ----------


          k = 0.0000 0.0000 0.0000 (  7823 PWs)   bands (ev):

   -74.9767 -74.9701 -66.6328 -38.3339 -38.3339 -38.3339 -38.3073 -38.3073
   -38.3073 -32.7576 -32.7576 -32.7576  -2.2820  -2.2820  -2.2820  -2.2276
    -2.2276   7.4378  15.5034  15.5034  15.5034  16.4373  16.4373  17.3971
    17.3971  17.3971  18.9927  18.9928  18.9928  19.6315  19.6315  20.0913
    20.0913  23.3116  23.6491  23.6491  23.6491  25.0312

          k = 0.0000 0.0000 0.2041 (  7919 PWs)   bands (ev):

   -74.9762 -74.9705 -66.6328 -38.3325 -38.3323 -38.3323 -38.3092 -38.3092
   -38.3090 -32.7580 -32.7576 -32.7576  -2.2828  -2.2787  -2.2787  -2.2251
    -2.2251   7.8090  14.9519  15.4761  15.4761  16.6252  16.6252  17.2341
    17.3411  17.3411  18.4733  18.7632  18.7632  19.6743  19.6743  20.0225
    20.0225  21.9825  23.4408  23.4408  23.4810  24.8627

          k = 0.0000 0.0000 0.4082 (  7937 PWs)   bands (ev):

   -74.9750 -74.9717 -66.6329 -38.3279 -38.3275 -38.3275 -38.3142 -38.3142
   -38.3140 -32.7586 -32.7575 -32.7575  -2.2845  -2.2732  -2.2732  -2.2192
    -2.2192   8.8426  13.3403  15.4653  15.4653  16.8966  16.9251  16.9251
    17.3174  17.3174  18.0704  18.3666  18.3666  19.6314  19.6314  19.9228
    19.9228  20.4868  23.1675  23.2936  23.2936  24.1527

          k = 0.0000 0.0000-0.6124 (  7954 PWs)   bands (ev):

   -74.9734 -74.9734 -66.6329 -38.3216 -38.3215 -38.3215 -38.3204 -38.3203
   -38.3203 -32.7589 -32.7574 -32.7574  -2.2855  -2.2709  -2.2709  -2.2158
    -2.2158   9.8181  12.0200  15.4715  15.4715  16.8576  17.0252  17.0252
    17.3721  17.3721  17.9591  18.1843  18.1843  19.5669  19.5669  19.8261
    19.8813  19.8813  23.1399  23.4118  23.4118  23.6609

          k = 0.0000 0.1925-0.0680 (  7919 PWs)   bands (ev):

   -74.9762 -74.9705 -66.6328 -38.3325 -38.3323 -38.3323 -38.3092 -38.3092
   -38.3090 -32.7580 -32.7576 -32.7576  -2.2828  -2.2787  -2.2787  -2.2251
    -2.2251   7.8090  14.9520  15.4760  15.4761  16.6252  16.6252  17.2342
    17.3411  17.3411  18.4733  18.7632  18.7632  19.6743  19.6743  20.0225
    20.0225  21.9826  23.4408  23.4408  23.4810  24.8627

          k = 0.0000 0.1925 0.1361 (  7927 PWs)   bands (ev):

   -74.9761 -74.9707 -66.6328 -38.3350 -38.3350 -38.3258 -38.3156 -38.3065
   -38.3065 -32.7582 -32.7575 -32.7575  -2.2880  -2.2750  -2.2750  -2.2281
    -2.2218   7.9307  14.7129  15.6384  15.6384  16.5996  16.6083  17.0074
    17.4128  17.4128  18.5437  18.5437  18.6898  19.6214  19.7036  19.9044
    20.0631  21.9981  22.3906  22.3906  24.0837  24.4079

          k = 0.0000 0.1925 0.3402 (  7927 PWs)   bands (ev):

   -74.9752 -74.9715 -66.6329 -38.3340 -38.3340 -38.3235 -38.3181 -38.3078
   -38.3078 -32.7586 -32.7575 -32.7573  -2.2899  -2.2705  -2.2688  -2.2271
    -2.2160   8.7402  13.8553  15.3127  15.7011  16.6150  16.8415  16.8452
    17.3247  17.4574  18.0901  18.1763  18.5822  19.5978  19.6912  19.7469
    19.9872  20.8350  21.5195  21.6813  23.6706  25.3724

          k = 0.0000 0.1925-0.6804 (  7917 PWs)   bands (ev):

   -74.9739 -74.9728 -66.6329 -38.3309 -38.3295 -38.3292 -38.3127 -38.3124
   -38.3110 -32.7587 -32.7576 -32.7573  -2.2855  -2.2715  -2.2663  -2.2224
    -2.2134   9.8690  12.5221  14.9041  15.6300  16.4770  16.9766  17.0932
    17.3975  17.5271  18.0078  18.0236  18.3080  19.5557  19.5941  19.7487
    19.8501  19.8868  21.2722  21.5751  23.4394  25.7805

          k = 0.0000 0.1925-0.4763 (  7912 PWs)   bands (ev):

   -74.9743 -74.9724 -66.6329 -38.3354 -38.3225 -38.3221 -38.3198 -38.3193
   -38.3064 -32.7585 -32.7577 -32.7574  -2.2819  -2.2738  -2.2691  -2.2192
    -2.2178   9.5222  12.9659  14.8978  15.4839  16.5357  17.0326  17.1025
    17.3005  17.5241  17.9815  18.1822  18.2588  19.5532  19.7267  19.7480
    19.8601  20.1439  21.2274  22.1046  23.3622  25.7760

          k = 0.0000 0.1925-0.2722 (  7924 PWs)   bands (ev):

   -74.9756 -74.9712 -66.6329 -38.3359 -38.3270 -38.3265 -38.3150 -38.3147
   -38.3058 -32.7583 -32.7575 -32.7575  -2.2837  -2.2753  -2.2740  -2.2236
    -2.2208   8.4022  14.2763  15.3844  15.3984  16.6252  16.9196  16.9810
    17.1753  17.4843  18.1835  18.3192  18.6080  19.6005  19.8039  19.8805
    19.9512  21.4470  21.5583  23.0531  23.4600  25.8141

          k = 0.0000 0.3849-0.1361 (  7937 PWs)   bands (ev):

   -74.9750 -74.9717 -66.6329 -38.3279 -38.3275 -38.3275 -38.3142 -38.3142
   -38.3140 -32.7586 -32.7575 -32.7575  -2.2845  -2.2732  -2.2732  -2.2192
    -2.2192   8.8426  13.3403  15.4653  15.4653  16.8966  16.9251  16.9251
    17.3174  17.3174  18.0705  18.3666  18.3666  19.6314  19.6314  19.9228
    19.9228  20.4868  23.1675  23.2936  23.2936  24.1527

          k = 0.0000 0.3849 0.0680 (  7927 PWs)   bands (ev):

   -74.9752 -74.9715 -66.6329 -38.3340 -38.3340 -38.3235 -38.3181 -38.3078
   -38.3078 -32.7586 -32.7575 -32.7573  -2.2899  -2.2705  -2.2688  -2.2271
    -2.2160   8.7402  13.8553  15.3127  15.7011  16.6150  16.8415  16.8452
    17.3247  17.4574  18.0901  18.1763  18.5821  19.5978  19.6912  19.7469
    19.9872  20.8350  21.5195  21.6813  23.6706  25.3723

          k = 0.0000 0.3849 0.2722 (  7920 PWs)   bands (ev):

   -74.9750 -74.9717 -66.6329 -38.3371 -38.3371 -38.3320 -38.3094 -38.3050
   -38.3050 -32.7592 -32.7572 -32.7572  -2.3001  -2.2612  -2.2612  -2.2346
    -2.2103   9.2716  13.4751  15.9813  15.9813  16.1743  16.1749  17.0379
    17.3938  17.3938  17.9728  17.9729  18.5954  19.4386  19.5871  19.6014
    19.9915  20.4315  20.6264  20.6265  23.2042  24.1185

          k = 0.0000 0.3849-0.7485 (  7949 PWs)   bands (ev):

   -74.9743 -74.9724 -66.6329 -38.3379 -38.3358 -38.3355 -38.3065 -38.3064
   -38.3038 -32.7592 -32.7573 -32.7571  -2.2984  -2.2608  -2.2581  -2.2348
    -2.2078  10.1648  12.9948  14.6655  15.8574  15.9986  16.9198  17.0540
    17.3257  17.6040  17.8167  17.9059  18.5431  19.4036  19.4902  19.6475
    19.8786  19.9566  20.1871  20.2289  23.4146  24.9757

          k = 0.0000 0.3849-0.5443 (  7942 PWs)   bands (ev):

   -74.9733 -74.9733 -66.6329 -38.3391 -38.3304 -38.3300 -38.3121 -38.3116
   -38.3027 -32.7585 -32.7580 -32.7572  -2.2861  -2.2701  -2.2615  -2.2274
    -2.2121  10.3304  13.3470  13.5261  15.7336  16.0426  16.9994  17.3525
    17.4010  17.5852  17.9326  18.0205  18.2264  19.4359  19.5988  19.6921
    19.8549  20.0690  20.1318  20.6774  23.4435  27.6469

          k = 0.0000 0.3849-0.3402 (  7912 PWs)   bands (ev):

   -74.9743 -74.9724 -66.6329 -38.3354 -38.3225 -38.3221 -38.3198 -38.3193
   -38.3064 -32.7585 -32.7577 -32.7574  -2.2819  -2.2738  -2.2691  -2.2192
    -2.2178   9.5222  12.9659  14.8978  15.4840  16.5357  17.0326  17.1025
    17.3005  17.5241  17.9815  18.1822  18.2588  19.5531  19.7267  19.7480
    19.8601  20.1439  21.2274  22.1047  23.3622  25.7771

          k = 0.0000-0.5774 0.2041 (  7954 PWs)   bands (ev):

   -74.9734 -74.9734 -66.6329 -38.3216 -38.3215 -38.3215 -38.3204 -38.3203
   -38.3203 -32.7589 -32.7574 -32.7574  -2.2855  -2.2709  -2.2709  -2.2158
    -2.2158   9.8181  12.0200  15.4715  15.4715  16.8577  17.0252  17.0252
    17.3721  17.3721  17.9591  18.1843  18.1843  19.5669  19.5669  19.8262
    19.8813  19.8813  23.1400  23.4118  23.4118  23.6609

          k = 0.0000-0.5774 0.4082 (  7917 PWs)   bands (ev):

   -74.9739 -74.9728 -66.6329 -38.3309 -38.3295 -38.3292 -38.3127 -38.3124
   -38.3110 -32.7587 -32.7576 -32.7573  -2.2855  -2.2715  -2.2663  -2.2224
    -2.2134   9.8690  12.5221  14.9041  15.6300  16.4770  16.9766  17.0932
    17.3975  17.5272  18.0078  18.0236  18.3081  19.5557  19.5941  19.7486
    19.8501  19.8868  21.2722  21.5751  23.4394  25.7805

          k = 0.0000-0.5774 0.6124 (  7949 PWs)   bands (ev):

   -74.9743 -74.9724 -66.6329 -38.3379 -38.3358 -38.3355 -38.3065 -38.3064
   -38.3038 -32.7592 -32.7573 -32.7571  -2.2984  -2.2608  -2.2581  -2.2348
    -2.2078  10.1648  12.9948  14.6655  15.8574  15.9986  16.9198  17.0540
    17.3257  17.6040  17.8167  17.9059  18.5431  19.4036  19.4902  19.6475
    19.8786  19.9566  20.1871  20.2289  23.4146  24.9756

          k = 0.0000-0.5774-0.4082 (  7912 PWs)   bands (ev):

   -74.9744 -74.9723 -66.6329 -38.3403 -38.3381 -38.3381 -38.3042 -38.3042
   -38.3012 -32.7596 -32.7570 -32.7570  -2.3063  -2.2544  -2.2544  -2.2404
    -2.2045  10.4604  12.6096  15.4502  15.7902  16.2258  16.2258  17.2425
    17.2425  17.3406  17.9259  17.9259  18.6372  19.1155  19.4772  19.5915
    19.8361  19.8362  19.8886  20.0912  23.1023  24.0743

          k = 0.1667 0.2887-0.2041 (  7927 PWs)   bands (ev):

   -74.9752 -74.9715 -66.6329 -38.3340 -38.3340 -38.3235 -38.3181 -38.3078
   -38.3078 -32.7586 -32.7575 -32.7573  -2.2899  -2.2705  -2.2688  -2.2271
    -2.2160   8.7402  13.8553  15.3127  15.7011  16.6150  16.8415  16.8451
    17.3247  17.4574  18.0901  18.1763  18.5821  19.5978  19.6912  19.7469
    19.9872  20.8350  21.5195  21.6813  23.6706  25.3723

          k = 0.1667 0.2887-0.0000 (  7924 PWs)   bands (ev):

   -74.9756 -74.9712 -66.6329 -38.3359 -38.3270 -38.3265 -38.3150 -38.3147
   -38.3058 -32.7583 -32.7575 -32.7575  -2.2837  -2.2753  -2.2740  -2.2236
    -2.2208   8.4022  14.2763  15.3845  15.3984  16.6252  16.9196  16.9810
    17.1753  17.4843  18.1835  18.3193  18.6080  19.6005  19.8039  19.8805
    19.9512  21.4470  21.5583  23.0531  23.4600  25.8136

          k = 0.1667 0.2887-0.8165 (  7948 PWs)   bands (ev):

   -74.9744 -74.9723 -66.6329 -38.3378 -38.3314 -38.3287 -38.3134 -38.3102
   -38.3042 -32.7588 -32.7576 -32.7572  -2.2893  -2.2702  -2.2620  -2.2281
    -2.2124   9.6333  13.3623  14.7039  15.4411  16.4269  16.9670  17.0796
    17.2231  17.6771  17.8745  17.9943  18.4643  19.5576  19.5959  19.7163
    19.8931  20.3172  20.4882  20.7751  24.4644  25.4457

          k = 0.1667 0.2887-0.6124 (  7930 PWs)   bands (ev):

   -74.9733 -74.9733 -66.6329 -38.3375 -38.3359 -38.3212 -38.3209 -38.3052
   -38.3051 -32.7584 -32.7581 -32.7572  -2.2811  -2.2780  -2.2588  -2.2276
    -2.2118  10.3398  12.9695  14.1190  15.2946  16.3111  17.0840  17.1032
    17.4066  17.6920  17.9260  17.9428  18.3213  19.5265  19.5622  19.6643
    19.8328  19.8814  20.3691  20.4152  24.6375  25.5898

          k = 0.1667-0.6736 0.1361 (  7917 PWs)   bands (ev):

   -74.9739 -74.9728 -66.6329 -38.3309 -38.3295 -38.3292 -38.3127 -38.3124
   -38.3110 -32.7587 -32.7576 -32.7573  -2.2855  -2.2715  -2.2663  -2.2224
    -2.2134   9.8690  12.5221  14.9041  15.6300  16.4770  16.9766  17.0932
    17.3975  17.5271  18.0078  18.0236  18.3080  19.5557  19.5941  19.7486
    19.8501  19.8868  21.2722  21.5751  23.4394  25.7805

          k = 0.1667-0.6736 0.3402 (  7912 PWs)   bands (ev):

   -74.9743 -74.9724 -66.6329 -38.3354 -38.3225 -38.3221 -38.3198 -38.3193
   -38.3064 -32.7585 -32.7577 -32.7574  -2.2819  -2.2738  -2.2691  -2.2192
    -2.2178   9.5222  12.9659  14.8978  15.4839  16.5357  17.0326  17.1025
    17.3005  17.5241  17.9815  18.1823  18.2588  19.5531  19.7267  19.7480
    19.8601  20.1439  21.2274  22.1046  23.3622  25.7763

          k = 0.1667-0.6736 0.5443 (  7948 PWs)   bands (ev):

   -74.9744 -74.9723 -66.6329 -38.3378 -38.3314 -38.3287 -38.3134 -38.3102
   -38.3042 -32.7588 -32.7576 -32.7572  -2.2893  -2.2702  -2.2620  -2.2281
    -2.2124   9.6333  13.3623  14.7039  15.4411  16.4269  16.9670  17.0796
    17.2231  17.6771  17.8745  17.9943  18.4643  19.5576  19.5959  19.7163
    19.8931  20.3172  20.4882  20.7751  24.4644  25.4457

          k = 0.1667-0.6736-0.4763 (  7949 PWs)   bands (ev):

   -74.9743 -74.9724 -66.6329 -38.3379 -38.3358 -38.3355 -38.3065 -38.3064
   -38.3038 -32.7592 -32.7573 -32.7571  -2.2984  -2.2608  -2.2581  -2.2348
    -2.2078  10.1648  12.9948  14.6655  15.8574  15.9986  16.9198  17.0540
    17.3257  17.6040  17.8166  17.9059  18.5431  19.4036  19.4902  19.6475
    19.8786  19.9566  20.1872  20.2289  23.4146  24.9756

          k = 0.1667-0.6736-0.2722 (  7960 PWs)   bands (ev):

   -74.9739 -74.9728 -66.6329 -38.3402 -38.3381 -38.3296 -38.3127 -38.3034
   -38.3019 -32.7590 -32.7577 -32.7571  -2.2933  -2.2674  -2.2544  -2.2341
    -2.2083  10.5530  13.0808  14.3594  14.8285  16.4184  17.0612  17.0884
    17.3058  17.6939  17.7988  17.9053  18.4801  19.4536  19.5403  19.6510
    19.7921  19.8943  19.9342  19.9725  24.3732  25.2865

          k = 0.1667-0.6736-0.0680 (  7930 PWs)   bands (ev):

   -74.9733 -74.9733 -66.6329 -38.3375 -38.3359 -38.3212 -38.3209 -38.3052
   -38.3051 -32.7584 -32.7581 -32.7572  -2.2811  -2.2780  -2.2588  -2.2276
    -2.2118  10.3398  12.9695  14.1190  15.2946  16.3111  17.0840  17.1032
    17.4066  17.6920  17.9260  17.9428  18.3213  19.5265  19.5622  19.6643
    19.8328  19.8814  20.3691  20.4152  24.6375  25.5898

          k = 0.3333-0.5774 0.0000 (  7942 PWs)   bands (ev):

   -74.9733 -74.9733 -66.6329 -38.3391 -38.3304 -38.3300 -38.3121 -38.3116
   -38.3027 -32.7585 -32.7580 -32.7572  -2.2861  -2.2701  -2.2615  -2.2274
    -2.2121  10.3304  13.3470  13.5261  15.7336  16.0426  16.9993  17.3524
    17.4011  17.5852  17.9326  18.0206  18.2264  19.4359  19.5988  19.6921
    19.8549  20.0690  20.1319  20.6774  23.4435  27.6469

          k = 0.3333-0.5774 0.2041 (  7930 PWs)   bands (ev):

   -74.9733 -74.9733 -66.6329 -38.3375 -38.3359 -38.3212 -38.3209 -38.3052
   -38.3051 -32.7584 -32.7581 -32.7572  -2.2811  -2.2780  -2.2588  -2.2276
    -2.2118  10.3398  12.9695  14.1190  15.2946  16.3111  17.0840  17.1032
    17.4066  17.6920  17.9261  17.9428  18.3213  19.5265  19.5622  19.6643
    19.8328  19.8814  20.3691  20.4153  24.6375  25.5898

     the Fermi energy is    19.3502 ev

!    total energy              =   -1524.77809970 Ry
     total all-electron energy =    -20474.059110 Ry
     estimated scf accuracy    <          6.7E-09 Ry
     smearing contrib. (-TS)   =      -0.00892315 Ry
     internal energy E=F+TS    =   -1524.76917655 Ry

     The total energy is F=E-TS. E is the sum of the following terms:
     one-electron contribution =    -441.53207196 Ry
     hartree contribution      =     270.95235924 Ry
     xc contribution           =    -137.83674084 Ry
     ewald contribution        =    -677.45861314 Ry
     one-center paw contrib.   =    -538.89410985 Ry

     total magnetization       =     5.34 Bohr mag/cell
     absolute magnetization    =     5.62 Bohr mag/cell

     convergence has been achieved in  29 iterations

     negative rho (up, down):  0.000E+00 7.276E-05

     Forces acting on atoms (cartesian axes, Ry/au):

     atom    1 type  2   force =     0.00000000    0.00000000    0.00000000
     atom    2 type  3   force =     0.00000000   -0.00000000    0.00000000
     atom    3 type  1   force =     0.00000000   -0.00000000    0.00000008
     atom    4 type  1   force =     0.00000000   -0.00000000   -0.00000008

     Total force =     0.000000     Total SCF correction =     0.000004
     SCF correction compared to forces is large: reduce conv_thr to get better values


     Computing stress (Cartesian axis) and pressure


     negative rho (up, down):  0.000E+00 7.276E-05
          total   stress  (Ry/bohr**3)                   (kbar)     P=      146.88
   0.00099850   0.00000000   0.00000000          146.88        0.00        0.00
   0.00000000   0.00099850  -0.00000000            0.00      146.88       -0.00
  -0.00000000  -0.00000000   0.00099849           -0.00       -0.00      146.88


     Writing all to output data dir ./outdir/Co2FeSn.save/
 
     init_run     :      1.69s CPU      1.76s WALL (       1 calls)
     electrons    :    112.62s CPU    115.60s WALL (       1 calls)
     forces       :      0.51s CPU      0.52s WALL (       1 calls)
     stress       :      1.18s CPU      1.18s WALL (       1 calls)

     Called by init_run:
     wfcinit      :      1.06s CPU      1.09s WALL (       1 calls)
     potinit      :      0.21s CPU      0.22s WALL (       1 calls)
     hinit0       :      0.19s CPU      0.19s WALL (       1 calls)

     Called by electrons:
     c_bands      :     86.51s CPU     88.61s WALL (      29 calls)
     sum_band     :     17.88s CPU     18.49s WALL (      29 calls)
     v_of_rho     :      1.08s CPU      1.13s WALL (      30 calls)
     newd         :      2.84s CPU      2.87s WALL (      30 calls)
     PAW_pot      :      4.27s CPU      4.41s WALL (      30 calls)
     mix_rho      :      0.18s CPU      0.18s WALL (      29 calls)

     Called by c_bands:
     init_us_2    :      1.00s CPU      1.05s WALL (    3904 calls)
     init_us_2:cp :      0.98s CPU      1.04s WALL (    3904 calls)
     cegterg      :     82.41s CPU     84.35s WALL (    1856 calls)

     Called by *egterg:
     cdiaghg      :     12.50s CPU     12.57s WALL (    7257 calls)
     h_psi        :     56.34s CPU     58.15s WALL (    7321 calls)
     s_psi        :      2.46s CPU      2.49s WALL (    7321 calls)
     g_psi        :      0.30s CPU      0.31s WALL (    5401 calls)

     Called by h_psi:
     h_psi:calbec :      3.76s CPU      3.87s WALL (    7321 calls)
     vloc_psi     :     49.04s CPU     50.71s WALL (    7321 calls)
     add_vuspsi   :      3.06s CPU      3.10s WALL (    7321 calls)

     General routines
     calbec       :      5.04s CPU      5.22s WALL (    9497 calls)
     fft          :      0.37s CPU      0.39s WALL (     788 calls)
     ffts         :      0.02s CPU      0.03s WALL (     118 calls)
     fftw         :     53.64s CPU     55.55s WALL (  417482 calls)
     interpolate  :      0.05s CPU      0.05s WALL (      60 calls)
 
     Parallel routines
 
     PWSCF        :   1m57.03s CPU   2m 0.80s WALL

 
   This run was terminated on:  23:42:44   8Oct2025            

=------------------------------------------------------------------------------=
   JOB DONE.
=------------------------------------------------------------------------------=
