
     Program PWSCF v.7.1 starts on  8Oct2025 at 23:26: 1 

     This program is part of the open-source Quantum ESPRESSO suite
     for quantum simulation of materials; please cite
         "P. Giannozzi et al., J. Phys.:Condens. Matter 21 395502 (2009);
         "P. Giannozzi et al., J. Phys.:Condens. Matter 29 465901 (2017);
         "P. Giannozzi et al., J. Chem. Phys. 152 154105 (2020);
          URL http://www.quantum-espresso.org", 
     in publications or presentations arising from this work. More details at
     http://www.quantum-espresso.org/quote

     Parallel version (MPI), running on    20 processors

     MPI processes distributed on     1 nodes
     60662 MiB available memory on the printing compute node when the environment starts
 
     Reading input from Co2FeSn_75.in

     Current dimensions of program PWSCF are:
     Max number of different atomic species (ntypx) = 10
     Max number of k-points (npk) =  40000
     Max angular momentum in pseudopotentials (lmaxx) =  4
     file Co.pbe-spn-kjpaw_psl.0.3.1.UPF: wavefunction(s)  3P 3D renormalized
     file Fe.pbe-spn-kjpaw_psl.1.0.0.UPF: wavefunction(s)  3P 3D renormalized
     file Sn.pbe-dn-kjpaw_psl.1.0.0.UPF: wavefunction(s)  5S 5P 4D renormalized
 
     R & G space division:  proc/nbgrp/npool/nimage =      20
     Subspace diagonalization in iterative solution of the eigenvalue problem:
     a serial algorithm will be used

 
     Parallelization info
     --------------------
     sticks:   dense  smooth     PW     G-vecs:    dense   smooth      PW
     Min         126      63     18                 4181     1478     231
     Max         127      64     19                 4185     1482     235
     Sum        2527    1261    367                83659    29603    4645
 
     Using Slab Decomposition
 


     bravais-lattice index     =           14
     lattice parameter (alat)  =       7.8036  a.u.
     unit-cell volume          =     336.0264 (a.u.)^3
     number of atoms/cell      =            4
     number of atomic types    =            3
     number of electrons       =        64.00
     number of Kohn-Sham states=           38
     kinetic-energy cutoff     =      75.0000  Ry
     charge density cutoff     =     600.0000  Ry
     scf convergence threshold =      1.0E-08
     mixing beta               =       0.2000
     number of iterations used =            8  plain     mixing
     Exchange-correlation= SLA  PW   PBX  PBC
                           (   1   4   3   4   0   0   0)

     celldm(1)=   7.803620  celldm(2)=   1.000000  celldm(3)=   1.000000
     celldm(4)=   0.500000  celldm(5)=   0.500000  celldm(6)=   0.500000

     crystal axes: (cart. coord. in units of alat)
               a(1) = (   1.000000   0.000000   0.000000 )  
               a(2) = (   0.500000   0.866025   0.000000 )  
               a(3) = (   0.500000   0.288675   0.816497 )  

     reciprocal axes: (cart. coord. in units 2 pi/alat)
               b(1) = (  1.000000 -0.577350 -0.408248 )  
               b(2) = (  0.000000  1.154701 -0.408248 )  
               b(3) = (  0.000000  0.000000  1.224745 )  


     PseudoPot. # 1 for Co read from file:
     <HPC_PATH>
     MD5 check sum: 3c0a43779828c046024e4f3be63f8e67
     Pseudo is Projector augmented-wave + core cor, Zval = 17.0
     Generated using &quot;atomic&quot; code by A. Dal Corso  v.6.2.2
     Shape of augmentation charge: PSQ
     Using radial grid of 1193 points,  6 beta functions with: 
                l(1) =   0
                l(2) =   0
                l(3) =   1
                l(4) =   1
                l(5) =   2
                l(6) =   2
     Q(r) pseudized with 0 coefficients 


     PseudoPot. # 2 for Fe read from file:
     <HPC_PATH>
     MD5 check sum: fc81f059e5c5069939230b1155715ae8
     Pseudo is Projector augmented-wave + core cor, Zval = 16.0
     Generated using &quot;atomic&quot; code by A. Dal Corso  v.6.3
     Shape of augmentation charge: PSQ
     Using radial grid of 1191 points,  6 beta functions with: 
                l(1) =   0
                l(2) =   0
                l(3) =   1
                l(4) =   1
                l(5) =   2
                l(6) =   2
     Q(r) pseudized with 0 coefficients 


     PseudoPot. # 3 for Sn read from file:
     <HPC_PATH>
     MD5 check sum: 67f11dec737d427557dc41ea34975807
     Pseudo is Projector augmented-wave + core cor, Zval = 14.0
     Generated using &quot;atomic&quot; code by A. Dal Corso  v.6.3
     Shape of augmentation charge: PSQ
     Using radial grid of 1243 points,  6 beta functions with: 
                l(1) =   0
                l(2) =   0
                l(3) =   1
                l(4) =   1
                l(5) =   2
                l(6) =   2
     Q(r) pseudized with 0 coefficients 


     atomic species   valence    mass     pseudopotential
        Co            17.00    58.93300     Co( 1.00)
        Fe            16.00    55.84500     Fe( 1.00)
        Sn            14.00   118.71000     Sn( 1.00)

     Starting magnetic structure 
     atomic species   magnetization
        Co           0.500
        Fe           0.500
        Sn           0.000

     12 Sym. Ops., with inversion, found



   Cartesian axes

     site n.     atom                  positions (alat units)
         1           Fe  tau(   1) = (   1.0000000   0.5773503   0.4082483  )
         2           Sn  tau(   2) = (   0.0000000   0.0000000   0.0000000  )
         3           Co  tau(   3) = (   0.5000000   0.2886751   0.2041241  )
         4           Co  tau(   4) = (   1.5000000   0.8660254   0.6123724  )

     number of k points=    32  Gaussian smearing, width (Ry)=  0.0200
                       cart. coord. in units 2pi/alat
        k(    1) = (   0.0000000   0.0000000   0.0000000), wk =   0.0046296
        k(    2) = (   0.0000000   0.0000000   0.2041241), wk =   0.0092593
        k(    3) = (   0.0000000   0.0000000   0.4082483), wk =   0.0092593
        k(    4) = (   0.0000000   0.0000000  -0.6123724), wk =   0.0046296
        k(    5) = (   0.0000000   0.1924501  -0.0680414), wk =   0.0277778
        k(    6) = (   0.0000000   0.1924501   0.1360828), wk =   0.0277778
        k(    7) = (   0.0000000   0.1924501   0.3402069), wk =   0.0277778
        k(    8) = (   0.0000000   0.1924501  -0.6804138), wk =   0.0277778
        k(    9) = (   0.0000000   0.1924501  -0.4762897), wk =   0.0277778
        k(   10) = (   0.0000000   0.1924501  -0.2721655), wk =   0.0277778
        k(   11) = (   0.0000000   0.3849002  -0.1360828), wk =   0.0277778
        k(   12) = (   0.0000000   0.3849002   0.0680414), wk =   0.0277778
        k(   13) = (   0.0000000   0.3849002   0.2721655), wk =   0.0277778
        k(   14) = (   0.0000000   0.3849002  -0.7484552), wk =   0.0277778
        k(   15) = (   0.0000000   0.3849002  -0.5443311), wk =   0.0277778
        k(   16) = (   0.0000000   0.3849002  -0.3402069), wk =   0.0277778
        k(   17) = (   0.0000000  -0.5773503   0.2041241), wk =   0.0138889
        k(   18) = (   0.0000000  -0.5773503   0.4082483), wk =   0.0277778
        k(   19) = (   0.0000000  -0.5773503   0.6123724), wk =   0.0277778
        k(   20) = (   0.0000000  -0.5773503  -0.4082483), wk =   0.0138889
        k(   21) = (   0.1666667   0.2886751  -0.2041241), wk =   0.0555556
        k(   22) = (   0.1666667   0.2886751  -0.0000000), wk =   0.0277778
        k(   23) = (   0.1666667   0.2886751  -0.8164966), wk =   0.0555556
        k(   24) = (   0.1666667   0.2886751  -0.6123724), wk =   0.0277778
        k(   25) = (   0.1666667  -0.6735753   0.1360828), wk =   0.0555556
        k(   26) = (   0.1666667  -0.6735753   0.3402069), wk =   0.0555556
        k(   27) = (   0.1666667  -0.6735753   0.5443311), wk =   0.0555556
        k(   28) = (   0.1666667  -0.6735753  -0.4762897), wk =   0.0555556
        k(   29) = (   0.1666667  -0.6735753  -0.2721655), wk =   0.0555556
        k(   30) = (   0.1666667  -0.6735753  -0.0680414), wk =   0.0555556
        k(   31) = (   0.3333333  -0.5773503   0.0000000), wk =   0.0277778
        k(   32) = (   0.3333333  -0.5773503   0.2041241), wk =   0.0277778

     Dense  grid:    83659 G-vectors     FFT dimensions: (  64,  64,  64)

     Smooth grid:    29603 G-vectors     FFT dimensions: (  45,  45,  45)

     Estimated max dynamical RAM per process >      30.95 MB

     Estimated total dynamical RAM >     619.08 MB

     Check: negative core charge=   -0.000020
     Generating pointlists ...
     new r_m :   0.2526 (alat units)  1.9712 (a.u.) for type    1
     new r_m :   0.2526 (alat units)  1.9712 (a.u.) for type    2
     new r_m :   0.2526 (alat units)  1.9712 (a.u.) for type    3

     Initial potential from superposition of free atoms

     starting charge      63.9976, renormalised to      64.0000
     Starting wfcs are   39 randomized atomic wfcs
     Checking if some PAW data can be deallocated... 

     total cpu time spent up to now is        1.5 secs

     per-process dynamical memory:    81.5 Mb

     Self-consistent Calculation

     iteration #  1     ecut=    75.00 Ry     beta= 0.20
     Davidson diagonalization with overlap
     ethr =  1.00E-02,  avg # of iterations =  3.6

     total cpu time spent up to now is        4.2 secs

     total energy              =   -1523.37745288 Ry
     estimated scf accuracy    <       2.80308421 Ry

     total magnetization       =     7.98 Bohr mag/cell
     absolute magnetization    =     8.62 Bohr mag/cell

     iteration #  2     ecut=    75.00 Ry     beta= 0.20
     Davidson diagonalization with overlap
     ethr =  4.38E-03,  avg # of iterations =  1.4

     negative rho (up, down):  0.000E+00 1.171E-04

     total cpu time spent up to now is        6.3 secs

     total energy              =   -1524.39130666 Ry
     estimated scf accuracy    <       1.97522770 Ry

     total magnetization       =     7.48 Bohr mag/cell
     absolute magnetization    =     8.31 Bohr mag/cell

     iteration #  3     ecut=    75.00 Ry     beta= 0.20
     Davidson diagonalization with overlap
     ethr =  3.09E-03,  avg # of iterations =  1.7

     negative rho (up, down):  0.000E+00 2.145E-04

     total cpu time spent up to now is        8.5 secs

     total energy              =   -1524.52147533 Ry
     estimated scf accuracy    <       2.42356983 Ry

     total magnetization       =     6.54 Bohr mag/cell
     absolute magnetization    =     7.41 Bohr mag/cell

     iteration #  4     ecut=    75.00 Ry     beta= 0.20
     Davidson diagonalization with overlap
     ethr =  3.09E-03,  avg # of iterations =  1.0

     negative rho (up, down):  0.000E+00 2.108E-04

     total cpu time spent up to now is       10.5 secs

     total energy              =   -1524.73264847 Ry
     estimated scf accuracy    <       0.11128277 Ry

     total magnetization       =     5.50 Bohr mag/cell
     absolute magnetization    =     6.34 Bohr mag/cell

     iteration #  5     ecut=    75.00 Ry     beta= 0.20
     Davidson diagonalization with overlap
     ethr =  1.74E-04,  avg # of iterations =  4.4

     negative rho (up, down):  0.000E+00 2.004E-04

     total cpu time spent up to now is       13.3 secs

     total energy              =   -1524.74413822 Ry
     estimated scf accuracy    <       0.04460864 Ry

     total magnetization       =     5.48 Bohr mag/cell
     absolute magnetization    =     6.14 Bohr mag/cell

     iteration #  6     ecut=    75.00 Ry     beta= 0.20
     Davidson diagonalization with overlap
     ethr =  6.97E-05,  avg # of iterations =  4.0

     negative rho (up, down):  0.000E+00 1.580E-04

     total cpu time spent up to now is       16.7 secs

     total energy              =   -1524.75380302 Ry
     estimated scf accuracy    <       0.00870624 Ry

     total magnetization       =     5.31 Bohr mag/cell
     absolute magnetization    =     5.86 Bohr mag/cell

     iteration #  7     ecut=    75.00 Ry     beta= 0.20
     Davidson diagonalization with overlap
     c_bands:  1 eigenvalues not converged
     ethr =  1.36E-05,  avg # of iterations =  7.7

     negative rho (up, down):  0.000E+00 1.476E-04

     total cpu time spent up to now is       20.4 secs

     total energy              =   -1524.75687121 Ry
     estimated scf accuracy    <       0.01427457 Ry

     total magnetization       =     5.33 Bohr mag/cell
     absolute magnetization    =     5.72 Bohr mag/cell

     iteration #  8     ecut=    75.00 Ry     beta= 0.20
     Davidson diagonalization with overlap
     ethr =  1.36E-05,  avg # of iterations =  1.9

     negative rho (up, down):  0.000E+00 1.363E-04

     total cpu time spent up to now is       22.6 secs

     total energy              =   -1524.75842274 Ry
     estimated scf accuracy    <       0.00217487 Ry

     total magnetization       =     5.31 Bohr mag/cell
     absolute magnetization    =     5.68 Bohr mag/cell

     iteration #  9     ecut=    75.00 Ry     beta= 0.20
     Davidson diagonalization with overlap
     ethr =  3.40E-06,  avg # of iterations =  3.8

     negative rho (up, down):  0.000E+00 1.329E-04

     total cpu time spent up to now is       25.2 secs

     total energy              =   -1524.75898269 Ry
     estimated scf accuracy    <       0.00023918 Ry

     total magnetization       =     5.34 Bohr mag/cell
     absolute magnetization    =     5.67 Bohr mag/cell

     iteration # 10     ecut=    75.00 Ry     beta= 0.20
     Davidson diagonalization with overlap
     ethr =  3.74E-07,  avg # of iterations =  5.5

     negative rho (up, down):  0.000E+00 1.320E-04

     total cpu time spent up to now is       28.8 secs

     total energy              =   -1524.75910058 Ry
     estimated scf accuracy    <       0.00016249 Ry

     total magnetization       =     5.34 Bohr mag/cell
     absolute magnetization    =     5.64 Bohr mag/cell

     iteration # 11     ecut=    75.00 Ry     beta= 0.20
     Davidson diagonalization with overlap
     ethr =  2.54E-07,  avg # of iterations =  3.1

     negative rho (up, down):  0.000E+00 1.344E-04

     total cpu time spent up to now is       31.5 secs

     total energy              =   -1524.75917067 Ry
     estimated scf accuracy    <       0.00007148 Ry

     total magnetization       =     5.32 Bohr mag/cell
     absolute magnetization    =     5.61 Bohr mag/cell

     iteration # 12     ecut=    75.00 Ry     beta= 0.20
     Davidson diagonalization with overlap
     ethr =  1.12E-07,  avg # of iterations =  2.0

     negative rho (up, down):  0.000E+00 1.344E-04

     total cpu time spent up to now is       33.7 secs

     total energy              =   -1524.75918200 Ry
     estimated scf accuracy    <       0.00001559 Ry

     total magnetization       =     5.34 Bohr mag/cell
     absolute magnetization    =     5.62 Bohr mag/cell

     iteration # 13     ecut=    75.00 Ry     beta= 0.20
     Davidson diagonalization with overlap
     ethr =  2.44E-08,  avg # of iterations =  5.9

     negative rho (up, down):  0.000E+00 1.349E-04

     total cpu time spent up to now is       37.0 secs

     total energy              =   -1524.75919053 Ry
     estimated scf accuracy    <       0.00000336 Ry

     total magnetization       =     5.34 Bohr mag/cell
     absolute magnetization    =     5.61 Bohr mag/cell

     iteration # 14     ecut=    75.00 Ry     beta= 0.20
     Davidson diagonalization with overlap
     ethr =  5.25E-09,  avg # of iterations =  4.9

     negative rho (up, down):  0.000E+00 1.359E-04

     total cpu time spent up to now is       39.9 secs

     total energy              =   -1524.75919054 Ry
     estimated scf accuracy    <       0.00000119 Ry

     total magnetization       =     5.34 Bohr mag/cell
     absolute magnetization    =     5.62 Bohr mag/cell

     iteration # 15     ecut=    75.00 Ry     beta= 0.20
     Davidson diagonalization with overlap
     ethr =  1.86E-09,  avg # of iterations =  4.8

     negative rho (up, down):  0.000E+00 1.362E-04

     total cpu time spent up to now is       43.1 secs

     total energy              =   -1524.75919231 Ry
     estimated scf accuracy    <       0.00000131 Ry

     total magnetization       =     5.34 Bohr mag/cell
     absolute magnetization    =     5.62 Bohr mag/cell

     iteration # 16     ecut=    75.00 Ry     beta= 0.20
     Davidson diagonalization with overlap
     ethr =  1.86E-09,  avg # of iterations =  2.6

     negative rho (up, down):  0.000E+00 1.366E-04

     total cpu time spent up to now is       45.5 secs

     total energy              =   -1524.75919254 Ry
     estimated scf accuracy    <       0.00000020 Ry

     total magnetization       =     5.34 Bohr mag/cell
     absolute magnetization    =     5.62 Bohr mag/cell

     iteration # 17     ecut=    75.00 Ry     beta= 0.20
     Davidson diagonalization with overlap
     ethr =  3.15E-10,  avg # of iterations =  5.5

     negative rho (up, down):  0.000E+00 1.366E-04

     total cpu time spent up to now is       49.1 secs

     total energy              =   -1524.75919276 Ry
     estimated scf accuracy    <       0.00000095 Ry

     total magnetization       =     5.34 Bohr mag/cell
     absolute magnetization    =     5.62 Bohr mag/cell

     iteration # 18     ecut=    75.00 Ry     beta= 0.20
     Davidson diagonalization with overlap
     ethr =  3.15E-10,  avg # of iterations =  3.5

     negative rho (up, down):  0.000E+00 1.366E-04

     total cpu time spent up to now is       51.9 secs

     total energy              =   -1524.75919289 Ry
     estimated scf accuracy    <       0.00000003 Ry

     total magnetization       =     5.34 Bohr mag/cell
     absolute magnetization    =     5.62 Bohr mag/cell

     iteration # 19     ecut=    75.00 Ry     beta= 0.20
     Davidson diagonalization with overlap
     ethr =  5.44E-11,  avg # of iterations =  2.8

     negative rho (up, down):  0.000E+00 1.366E-04
 
     Magnetic moment per site  (integrated on atomic sphere of radius R)
     atom   1 (R=0.253)  charge= 14.4758  magn=  2.8203
     atom   2 (R=0.253)  charge= 11.1693  magn= -0.0081
     atom   3 (R=0.253)  charge= 15.7998  magn=  1.2960
     atom   4 (R=0.253)  charge= 15.7998  magn=  1.2960

     total cpu time spent up to now is       54.3 secs

     End of self-consistent calculation

 ------ SPIN UP ------------


          k = 0.0000 0.0000 0.0000 (  3695 PWs)   bands (ev):

   -76.5426 -76.5365 -69.8925 -39.8479 -39.8479 -39.8479 -39.8233 -39.8233
   -39.8233 -35.9369 -35.9369 -35.9369  -2.2817  -2.2817  -2.2817  -2.2221
    -2.2221   7.3709  14.7414  14.7414  14.9319  14.9319  14.9319  15.6476
    15.6476  15.6476  17.2160  17.2160  17.7751  17.7751  17.8416  17.8416
    17.8416  22.9777  23.2601  23.2601  23.2602  24.2627

          k = 0.0000 0.0000 0.2041 (  3680 PWs)   bands (ev):

   -76.5422 -76.5369 -69.8925 -39.8462 -39.8462 -39.8460 -39.8250 -39.8250
   -39.8247 -35.9369 -35.9368 -35.9368  -2.2823  -2.2784  -2.2784  -2.2194
    -2.2194   7.7434  14.4886  14.4886  14.5049  15.3564  15.3564  15.5648
    15.6325  15.6325  17.1839  17.1839  17.4845  17.5540  17.5540  17.8810
    17.8810  20.8512  22.6822  22.6822  23.1155  24.4266

          k = 0.0000 0.0000 0.4082 (  3675 PWs)   bands (ev):

   -76.5410 -76.5380 -69.8926 -39.8417 -39.8417 -39.8417 -39.8296 -39.8296
   -39.8292 -35.9374 -35.9366 -35.9366  -2.2840  -2.2727  -2.2727  -2.2133
    -2.2133   8.7819  13.0911  14.3525  14.3525  15.4669  15.4929  15.4929
    16.0124  16.0124  17.0697  17.0697  17.1430  17.3071  17.3071  17.7549
    17.7549  18.8913  22.2823  22.2823  22.8671  23.5727

          k = 0.0000 0.0000-0.6124 (  3708 PWs)   bands (ev):

   -76.5395 -76.5395 -69.8926 -39.8367 -39.8367 -39.8365 -39.8352 -39.8352
   -39.8352 -35.9379 -35.9366 -35.9366  -2.2850  -2.2704  -2.2704  -2.2097
    -2.2097   9.7744  11.8193  14.3235  14.3235  15.4797  15.4797  15.5187
    16.2883  16.2883  16.9833  16.9833  17.1587  17.2489  17.2489  17.6154
    17.6154  18.0146  22.2712  22.2712  22.8154  23.0476

          k = 0.0000 0.1925-0.0680 (  3680 PWs)   bands (ev):

   -76.5422 -76.5369 -69.8925 -39.8462 -39.8462 -39.8460 -39.8250 -39.8250
   -39.8247 -35.9369 -35.9368 -35.9368  -2.2823  -2.2784  -2.2784  -2.2194
    -2.2194   7.7434  14.4886  14.4886  14.5049  15.3564  15.3564  15.5648
    15.6325  15.6325  17.1839  17.1839  17.4845  17.5540  17.5540  17.8810
    17.8811  20.8512  22.6822  22.6822  23.1155  24.4267

          k = 0.0000 0.1925 0.1361 (  3667 PWs)   bands (ev):

   -76.5421 -76.5370 -69.8925 -39.8485 -39.8485 -39.8398 -39.8308 -39.8225
   -39.8225 -35.9372 -35.9366 -35.9365  -2.2876  -2.2746  -2.2746  -2.2223
    -2.2162   7.8648  13.9074  14.9015  15.1041  15.1041  15.3191  15.3989
    15.6896  15.6896  17.0532  17.2598  17.4509  17.5079  17.5079  17.7674
    17.9256  21.3575  21.3700  21.3700  23.4241  23.4997

          k = 0.0000 0.1925 0.3402 (  3684 PWs)   bands (ev):

   -76.5413 -76.5377 -69.8926 -39.8478 -39.8477 -39.8380 -39.8329 -39.8237
   -39.8237 -35.9376 -35.9366 -35.9364  -2.2895  -2.2701  -2.2684  -2.2210
    -2.2102   8.6740  13.3311  14.5424  14.7549  15.2842  15.4713  15.6260
    15.8157  15.9069  16.8867  17.0830  17.2323  17.2452  17.3223  17.7161
    17.8950  19.3866  20.5322  20.5395  22.8876  24.6646

          k = 0.0000 0.1925-0.6804 (  3688 PWs)   bands (ev):

   -76.5400 -76.5390 -69.8926 -39.8448 -39.8435 -39.8431 -39.8285 -39.8281
   -39.8265 -35.9377 -35.9367 -35.9364  -2.2850  -2.2711  -2.2659  -2.2164
    -2.2074   9.8013  12.2986  14.0493  14.5466  15.3356  15.4753  15.5883
    16.2555  16.3322  16.8067  16.8174  17.0867  17.1662  17.3608  17.6932
    17.7046  18.1227  19.9824  20.4050  22.7210  25.3050

          k = 0.0000 0.1925-0.4763 (  3690 PWs)   bands (ev):

   -76.5404 -76.5386 -69.8926 -39.8488 -39.8375 -39.8368 -39.8348 -39.8342
   -39.8224 -35.9375 -35.9367 -35.9366  -2.2815  -2.2733  -2.2688  -2.2133
    -2.2115   9.4570  12.6979  14.1961  14.3455  15.2836  15.4425  15.6514
    16.1676  16.2700  16.7553  16.9059  17.0312  17.2227  17.2372  17.6935
    17.9403  18.4608  19.8727  21.0569  22.8090  25.2286

          k = 0.0000 0.1925-0.2722 (  3703 PWs)   bands (ev):

   -76.5416 -76.5375 -69.8926 -39.8494 -39.8414 -39.8411 -39.8307 -39.8300
   -39.8219 -35.9374 -35.9369 -35.9366  -2.2832  -2.2750  -2.2735  -2.2176
    -2.2151   8.3378  13.7705  14.2812  14.8929  15.1447  15.5095  15.5120
    15.7709  15.8236  16.9903  17.2344  17.2401  17.2684  17.3429  17.7072
    18.0190  20.1569  20.2253  22.2953  23.1722  25.1624

          k = 0.0000 0.3849-0.1361 (  3675 PWs)   bands (ev):

   -76.5410 -76.5380 -69.8926 -39.8417 -39.8417 -39.8417 -39.8296 -39.8296
   -39.8292 -35.9374 -35.9366 -35.9366  -2.2840  -2.2727  -2.2727  -2.2133
    -2.2133   8.7819  13.0911  14.3525  14.3525  15.4669  15.4929  15.4929
    16.0124  16.0124  17.0698  17.0698  17.1430  17.3071  17.3071  17.7549
    17.7549  18.8913  22.2823  22.2823  22.8671  23.5727

          k = 0.0000 0.3849 0.0680 (  3684 PWs)   bands (ev):

   -76.5413 -76.5377 -69.8926 -39.8478 -39.8477 -39.8380 -39.8329 -39.8237
   -39.8237 -35.9376 -35.9366 -35.9364  -2.2895  -2.2701  -2.2684  -2.2210
    -2.2102   8.6740  13.3311  14.5424  14.7548  15.2842  15.4713  15.6260
    15.8157  15.9069  16.8867  17.0830  17.2323  17.2452  17.3223  17.7161
    17.8950  19.3866  20.5322  20.5395  22.8876  24.6646

          k = 0.0000 0.3849 0.2722 (  3663 PWs)   bands (ev):

   -76.5410 -76.5380 -69.8926 -39.8503 -39.8503 -39.8459 -39.8247 -39.8210
   -39.8210 -35.9381 -35.9360 -35.9360  -2.2997  -2.2609  -2.2609  -2.2285
    -2.2044   9.1915  12.9168  14.8316  15.3452  15.3922  15.4967  15.4967
    15.8655  15.8655  16.6030  17.0394  17.0394  17.1682  17.3062  17.7513
    17.7712  18.9571  19.2568  19.2568  22.3780  23.0275

          k = 0.0000 0.3849-0.7485 (  3680 PWs)   bands (ev):

   -76.5404 -76.5386 -69.8926 -39.8510 -39.8493 -39.8490 -39.8226 -39.8224
   -39.8200 -35.9382 -35.9363 -35.9361  -2.2980  -2.2605  -2.2578  -2.2287
    -2.2018  10.0446  12.6715  14.1260  15.0287  15.1726  15.5370  15.7531
    15.9663  16.1704  16.6898  16.8863  16.9595  17.0617  17.4107  17.6379
    17.8228  18.2106  18.4516  18.7361  22.5251  24.1190

          k = 0.0000 0.3849-0.5443 (  3685 PWs)   bands (ev):

   -76.5395 -76.5395 -69.8926 -39.8524 -39.8445 -39.8436 -39.8279 -39.8272
   -39.8189 -35.9376 -35.9369 -35.9362  -2.2856  -2.2698  -2.2612  -2.2214
    -2.2058  10.2191  13.0240  13.2417  14.6912  15.0285  15.4288  15.9090
    16.0714  16.4996  16.6272  16.7130  16.9445  17.0904  17.2294  17.9212
    18.0149  18.0586  18.4732  19.3492  22.6005  27.0624

          k = 0.0000 0.3849-0.3402 (  3690 PWs)   bands (ev):

   -76.5404 -76.5386 -69.8926 -39.8488 -39.8375 -39.8368 -39.8348 -39.8342
   -39.8224 -35.9375 -35.9367 -35.9366  -2.2815  -2.2733  -2.2688  -2.2133
    -2.2115   9.4570  12.6979  14.1961  14.3455  15.2836  15.4425  15.6514
    16.1676  16.2700  16.7553  16.9059  17.0312  17.2227  17.2372  17.6935
    17.9404  18.4608  19.8727  21.0569  22.8090  25.2281

          k = 0.0000-0.5774 0.2041 (  3708 PWs)   bands (ev):

   -76.5395 -76.5395 -69.8926 -39.8367 -39.8367 -39.8365 -39.8352 -39.8352
   -39.8352 -35.9379 -35.9366 -35.9366  -2.2850  -2.2704  -2.2704  -2.2097
    -2.2097   9.7744  11.8193  14.3235  14.3235  15.4797  15.4798  15.5187
    16.2882  16.2882  16.9833  16.9833  17.1587  17.2489  17.2489  17.6154
    17.6154  18.0146  22.2712  22.2712  22.8154  23.0476

          k = 0.0000-0.5774 0.4082 (  3688 PWs)   bands (ev):

   -76.5400 -76.5390 -69.8926 -39.8448 -39.8435 -39.8431 -39.8285 -39.8281
   -39.8265 -35.9377 -35.9367 -35.9364  -2.2850  -2.2711  -2.2659  -2.2164
    -2.2074   9.8013  12.2986  14.0493  14.5466  15.3356  15.4753  15.5883
    16.2555  16.3321  16.8067  16.8174  17.0867  17.1662  17.3608  17.6932
    17.7046  18.1227  19.9824  20.4050  22.7210  25.3049

          k = 0.0000-0.5774 0.6124 (  3680 PWs)   bands (ev):

   -76.5404 -76.5386 -69.8926 -39.8510 -39.8493 -39.8490 -39.8226 -39.8224
   -39.8200 -35.9382 -35.9363 -35.9361  -2.2980  -2.2605  -2.2578  -2.2287
    -2.2018  10.0446  12.6715  14.1260  15.0287  15.1726  15.5370  15.7531
    15.9663  16.1704  16.6898  16.8863  16.9595  17.0617  17.4106  17.6379
    17.8228  18.2106  18.4516  18.7361  22.5251  24.1190

          k = 0.0000-0.5774-0.4082 (  3692 PWs)   bands (ev):

   -76.5405 -76.5385 -69.8926 -39.8530 -39.8516 -39.8516 -39.8202 -39.8202
   -39.8181 -35.9388 -35.9360 -35.9360  -2.3059  -2.2542  -2.2542  -2.2344
    -2.1985  10.2867  12.4147  14.5421  14.8654  15.6749  15.6749  15.8910
    16.0367  16.0367  16.0528  16.9587  17.1507  17.1507  17.3641  17.6128
    17.7427  18.0586  18.0586  18.1884  22.2381  22.9222

          k = 0.1667 0.2887-0.2041 (  3684 PWs)   bands (ev):

   -76.5413 -76.5377 -69.8926 -39.8477 -39.8477 -39.8380 -39.8329 -39.8237
   -39.8237 -35.9376 -35.9366 -35.9364  -2.2895  -2.2701  -2.2684  -2.2210
    -2.2102   8.6740  13.3311  14.5424  14.7549  15.2842  15.4713  15.6260
    15.8157  15.9069  16.8867  17.0830  17.2323  17.2452  17.3223  17.7161
    17.8950  19.3866  20.5322  20.5395  22.8876  24.6646

          k = 0.1667 0.2887-0.0000 (  3703 PWs)   bands (ev):

   -76.5416 -76.5375 -69.8926 -39.8494 -39.8414 -39.8411 -39.8308 -39.8300
   -39.8219 -35.9374 -35.9369 -35.9366  -2.2832  -2.2750  -2.2735  -2.2176
    -2.2151   8.3378  13.7705  14.2812  14.8929  15.1447  15.5095  15.5120
    15.7709  15.8236  16.9903  17.2344  17.2401  17.2684  17.3429  17.7072
    18.0191  20.1569  20.2253  22.2953  23.1722  25.1635

          k = 0.1667 0.2887-0.8165 (  3694 PWs)   bands (ev):

   -76.5405 -76.5385 -69.8926 -39.8512 -39.8451 -39.8430 -39.8290 -39.8258
   -39.8206 -35.9378 -35.9367 -35.9364  -2.2889  -2.2698  -2.2618  -2.2221
    -2.2064   9.5533  12.9329  14.2011  14.5811  15.2097  15.5725  15.7703
    15.8565  16.2376  16.6759  16.8867  16.9677  17.2262  17.2616  17.7248
    17.9405  18.8046  18.9349  19.3866  23.9152  24.6918

          k = 0.1667 0.2887-0.6124 (  3688 PWs)   bands (ev):

   -76.5395 -76.5395 -69.8926 -39.8509 -39.8491 -39.8362 -39.8358 -39.8213
   -39.8213 -35.9374 -35.9371 -35.9362  -2.2807  -2.2776  -2.2585  -2.2215
    -2.2055  10.2287  12.7297  13.6185  14.5705  15.1357  15.5960  15.6458
    16.0752  16.5348  16.6108  16.6969  16.9710  17.1942  17.3638  17.7478
    17.8060  18.0778  18.7961  18.8613  24.1363  24.7495

          k = 0.1667-0.6736 0.1361 (  3688 PWs)   bands (ev):

   -76.5400 -76.5390 -69.8926 -39.8448 -39.8435 -39.8431 -39.8285 -39.8281
   -39.8265 -35.9377 -35.9367 -35.9364  -2.2850  -2.2711  -2.2659  -2.2164
    -2.2074   9.8013  12.2986  14.0493  14.5466  15.3356  15.4753  15.5883
    16.2555  16.3322  16.8067  16.8174  17.0867  17.1662  17.3608  17.6932
    17.7046  18.1227  19.9824  20.4050  22.7210  25.3049

          k = 0.1667-0.6736 0.3402 (  3690 PWs)   bands (ev):

   -76.5404 -76.5386 -69.8926 -39.8488 -39.8375 -39.8368 -39.8348 -39.8342
   -39.8224 -35.9375 -35.9367 -35.9366  -2.2815  -2.2733  -2.2688  -2.2133
    -2.2115   9.4570  12.6979  14.1961  14.3455  15.2836  15.4425  15.6514
    16.1676  16.2700  16.7553  16.9059  17.0312  17.2227  17.2372  17.6935
    17.9404  18.4608  19.8727  21.0569  22.8090  25.2286

          k = 0.1667-0.6736 0.5443 (  3694 PWs)   bands (ev):

   -76.5405 -76.5385 -69.8926 -39.8512 -39.8451 -39.8430 -39.8290 -39.8258
   -39.8206 -35.9378 -35.9367 -35.9364  -2.2889  -2.2698  -2.2618  -2.2221
    -2.2064   9.5533  12.9329  14.2011  14.5811  15.2097  15.5725  15.7703
    15.8565  16.2376  16.6759  16.8867  16.9677  17.2262  17.2616  17.7248
    17.9405  18.8046  18.9349  19.3866  23.9152  24.6918

          k = 0.1667-0.6736-0.4763 (  3680 PWs)   bands (ev):

   -76.5404 -76.5386 -69.8926 -39.8510 -39.8493 -39.8490 -39.8226 -39.8224
   -39.8200 -35.9382 -35.9363 -35.9361  -2.2980  -2.2605  -2.2578  -2.2287
    -2.2018  10.0446  12.6715  14.1260  15.0287  15.1726  15.5370  15.7531
    15.9663  16.1704  16.6898  16.8863  16.9595  17.0617  17.4106  17.6379
    17.8228  18.2106  18.4516  18.7361  22.5251  24.1190

          k = 0.1667-0.6736-0.2722 (  3680 PWs)   bands (ev):

   -76.5400 -76.5390 -69.8926 -39.8533 -39.8512 -39.8439 -39.8281 -39.8197
   -39.8182 -35.9379 -35.9367 -35.9360  -2.2929  -2.2671  -2.2542  -2.2280
    -2.2021  10.3937  12.8376  13.8608  14.4592  15.2986  15.5977  15.7006
    15.8954  16.2898  16.6776  16.7264  17.1205  17.2519  17.4648  17.4731
    17.8521  18.1046  18.1729  18.1955  23.6905  24.4377

          k = 0.1667-0.6736-0.0680 (  3688 PWs)   bands (ev):

   -76.5395 -76.5395 -69.8926 -39.8509 -39.8491 -39.8362 -39.8358 -39.8213
   -39.8213 -35.9374 -35.9371 -35.9362  -2.2807  -2.2776  -2.2585  -2.2215
    -2.2055  10.2287  12.7297  13.6185  14.5705  15.1357  15.5960  15.6458
    16.0753  16.5348  16.6108  16.6969  16.9710  17.1942  17.3638  17.7479
    17.8060  18.0778  18.7961  18.8613  24.1363  24.7495

          k = 0.3333-0.5774 0.0000 (  3685 PWs)   bands (ev):

   -76.5395 -76.5395 -69.8926 -39.8524 -39.8445 -39.8436 -39.8279 -39.8272
   -39.8189 -35.9376 -35.9369 -35.9362  -2.2856  -2.2698  -2.2612  -2.2214
    -2.2058  10.2191  13.0240  13.2417  14.6912  15.0285  15.4288  15.9090
    16.0715  16.4996  16.6272  16.7130  16.9445  17.0904  17.2294  17.9212
    18.0149  18.0586  18.4732  19.3492  22.6004  27.0624

          k = 0.3333-0.5774 0.2041 (  3688 PWs)   bands (ev):

   -76.5395 -76.5395 -69.8926 -39.8509 -39.8491 -39.8362 -39.8358 -39.8213
   -39.8213 -35.9374 -35.9371 -35.9362  -2.2807  -2.2776  -2.2585  -2.2215
    -2.2055  10.2287  12.7297  13.6185  14.5705  15.1357  15.5961  15.6458
    16.0752  16.5348  16.6108  16.6969  16.9710  17.1942  17.3638  17.7478
    17.8060  18.0778  18.7961  18.8613  24.1363  24.7495

 ------ SPIN DOWN ----------


          k = 0.0000 0.0000 0.0000 (  3695 PWs)   bands (ev):

   -74.9963 -74.9898 -66.6417 -38.3455 -38.3455 -38.3455 -38.3187 -38.3187
   -38.3187 -32.7639 -32.7639 -32.7639  -2.2830  -2.2830  -2.2830  -2.2286
    -2.2286   7.4389  15.5018  15.5018  15.5018  16.4345  16.4345  17.3954
    17.3954  17.3954  18.9897  18.9897  18.9897  19.6247  19.6247  20.0868
    20.0868  23.3112  23.6465  23.6465  23.6465  25.0326

          k = 0.0000 0.0000 0.2041 (  3680 PWs)   bands (ev):

   -74.9959 -74.9902 -66.6417 -38.3436 -38.3436 -38.3433 -38.3206 -38.3206
   -38.3204 -32.7640 -32.7638 -32.7638  -2.2837  -2.2797  -2.2797  -2.2262
    -2.2262   7.8101  14.9514  15.4746  15.4746  16.6224  16.6224  17.2335
    17.3393  17.3393  18.4700  18.7598  18.7598  19.6686  19.6686  20.0179
    20.0179  21.9801  23.4385  23.4385  23.4824  24.8636

          k = 0.0000 0.0000 0.4082 (  3675 PWs)   bands (ev):

   -74.9946 -74.9914 -66.6417 -38.3387 -38.3387 -38.3386 -38.3255 -38.3255
   -38.3254 -32.7646 -32.7636 -32.7636  -2.2855  -2.2741  -2.2741  -2.2203
    -2.2203   8.8435  13.3411  15.4641  15.4641  16.8954  16.9227  16.9227
    17.3151  17.3151  18.0676  18.3628  18.3628  19.6265  19.6265  19.9186
    19.9186  20.4847  23.1686  23.2913  23.2914  24.1521

          k = 0.0000 0.0000-0.6124 (  3708 PWs)   bands (ev):

   -74.9930 -74.9930 -66.6418 -38.3330 -38.3330 -38.3330 -38.3318 -38.3318
   -38.3318 -32.7651 -32.7638 -32.7638  -2.2865  -2.2719  -2.2719  -2.2168
    -2.2168   9.8185  12.0217  15.4703  15.4703  16.8557  17.0228  17.0228
    17.3693  17.3693  17.9570  18.1799  18.1799  19.5621  19.5621  19.8233
    19.8773  19.8773  23.1408  23.4092  23.4092  23.6595

          k = 0.0000 0.1925-0.0680 (  3680 PWs)   bands (ev):

   -74.9959 -74.9902 -66.6417 -38.3436 -38.3436 -38.3433 -38.3206 -38.3206
   -38.3204 -32.7640 -32.7638 -32.7638  -2.2837  -2.2797  -2.2797  -2.2262
    -2.2262   7.8101  14.9514  15.4746  15.4746  16.6224  16.6224  17.2336
    17.3392  17.3393  18.4701  18.7598  18.7598  19.6686  19.6686  20.0179
    20.0179  21.9801  23.4384  23.4385  23.4824  24.8636

          k = 0.0000 0.1925 0.1361 (  3667 PWs)   bands (ev):

   -74.9958 -74.9903 -66.6416 -38.3461 -38.3461 -38.3368 -38.3269 -38.3178
   -38.3178 -32.7643 -32.7636 -32.7636  -2.2889  -2.2759  -2.2759  -2.2292
    -2.2229   7.9318  14.7119  15.6374  15.6374  16.5970  16.6052  17.0065
    17.4115  17.4115  18.5408  18.5408  18.6859  19.6152  19.6984  19.9001
    20.0584  21.9964  22.3889  22.3889  24.0823  24.4108

          k = 0.0000 0.1925 0.3402 (  3684 PWs)   bands (ev):

   -74.9949 -74.9911 -66.6417 -38.3452 -38.3451 -38.3348 -38.3293 -38.3193
   -38.3192 -32.7648 -32.7637 -32.7635  -2.2909  -2.2714  -2.2697  -2.2282
    -2.2170   8.7411  13.8554  15.3123  15.7002  16.6135  16.8396  16.8421
    17.3229  17.4556  18.0865  18.1729  18.5780  19.5918  19.6867  19.7428
    19.9825  20.8329  21.5179  21.6793  23.6696  25.3735

          k = 0.0000 0.1925-0.6804 (  3688 PWs)   bands (ev):

   -74.9935 -74.9925 -66.6418 -38.3421 -38.3405 -38.3403 -38.3244 -38.3240
   -38.3223 -32.7649 -32.7638 -32.7635  -2.2865  -2.2725  -2.2673  -2.2235
    -2.2145   9.8694  12.5237  14.9040  15.6292  16.4756  16.9739  17.0910
    17.3951  17.5245  18.0046  18.0194  18.3042  19.5516  19.5893  19.7452
    19.8464  19.8831  21.2695  21.5726  23.4389  25.7807

          k = 0.0000 0.1925-0.4763 (  3690 PWs)   bands (ev):

   -74.9939 -74.9921 -66.6418 -38.3463 -38.3340 -38.3335 -38.3311 -38.3307
   -38.3179 -32.7648 -32.7638 -32.7637  -2.2829  -2.2748  -2.2701  -2.2202
    -2.2188   9.5228  12.9670  14.8982  15.4827  16.5337  17.0304  17.1001
    17.2977  17.5218  17.9779  18.1789  18.2545  19.5485  19.7218  19.7443
    19.8563  20.1408  21.2247  22.1024  23.3622  25.7774

          k = 0.0000 0.1925-0.2722 (  3703 PWs)   bands (ev):

   -74.9952 -74.9908 -66.6418 -38.3471 -38.3383 -38.3381 -38.3267 -38.3262
   -38.3172 -32.7645 -32.7640 -32.7637  -2.2846  -2.2763  -2.2750  -2.2247
    -2.2219   8.4031  14.2760  15.3844  15.3969  16.6224  16.9166  16.9796
    17.1732  17.4824  18.1800  18.3156  18.6036  19.5946  19.7991  19.8763
    19.9462  21.4441  21.5562  23.0515  23.4610  25.7596

          k = 0.0000 0.3849-0.1361 (  3675 PWs)   bands (ev):

   -74.9946 -74.9914 -66.6417 -38.3387 -38.3387 -38.3386 -38.3255 -38.3255
   -38.3254 -32.7646 -32.7636 -32.7636  -2.2855  -2.2741  -2.2741  -2.2203
    -2.2203   8.8435  13.3411  15.4641  15.4641  16.8954  16.9226  16.9227
    17.3151  17.3151  18.0676  18.3627  18.3628  19.6265  19.6265  19.9186
    19.9186  20.4848  23.1686  23.2913  23.2914  24.1521

          k = 0.0000 0.3849 0.0680 (  3684 PWs)   bands (ev):

   -74.9949 -74.9911 -66.6417 -38.3452 -38.3451 -38.3348 -38.3293 -38.3193
   -38.3192 -32.7648 -32.7637 -32.7635  -2.2909  -2.2714  -2.2697  -2.2282
    -2.2170   8.7411  13.8554  15.3123  15.7002  16.6135  16.8395  16.8421
    17.3229  17.4556  18.0865  18.1729  18.5780  19.5918  19.6867  19.7428
    19.9825  20.8329  21.5179  21.6793  23.6696  25.3735

          k = 0.0000 0.3849 0.2722 (  3663 PWs)   bands (ev):

   -74.9946 -74.9914 -66.6417 -38.3478 -38.3478 -38.3434 -38.3204 -38.3163
   -38.3163 -32.7652 -32.7632 -32.7632  -2.3011  -2.2622  -2.2622  -2.2356
    -2.2113   9.2723  13.4754  15.9810  15.9811  16.1734  16.1747  17.0340
    17.3926  17.3926  17.9693  17.9693  18.5914  19.4353  19.5829  19.5953
    19.9866  20.4289  20.6245  20.6245  23.2009  24.1211

          k = 0.0000 0.3849-0.7485 (  3680 PWs)   bands (ev):

   -74.9939 -74.9921 -66.6417 -38.3489 -38.3467 -38.3465 -38.3180 -38.3179
   -38.3152 -32.7653 -32.7635 -32.7632  -2.2994  -2.2618  -2.2590  -2.2358
    -2.2089  10.1649  12.9961  14.6666  15.8567  15.9985  16.9183  17.0509
    17.3234  17.6006  17.8137  17.9028  18.5391  19.4002  19.4861  19.6428
    19.8745  19.9528  20.1838  20.2260  23.4123  24.9770

          k = 0.0000 0.3849-0.5443 (  3685 PWs)   bands (ev):

   -74.9930 -74.9930 -66.6418 -38.3503 -38.3415 -38.3408 -38.3237 -38.3231
   -38.3141 -32.7647 -32.7641 -32.7634  -2.2871  -2.2711  -2.2624  -2.2284
    -2.2132  10.3305  13.3482  13.5278  15.7330  16.0414  16.9968  17.3503
    17.3983  17.5828  17.9283  18.0171  18.2227  19.4332  19.5944  19.6874
    19.8521  20.0652  20.1275  20.6741  23.4426  27.6480

          k = 0.0000 0.3849-0.3402 (  3690 PWs)   bands (ev):

   -74.9939 -74.9921 -66.6418 -38.3463 -38.3340 -38.3335 -38.3311 -38.3307
   -38.3179 -32.7648 -32.7638 -32.7637  -2.2829  -2.2748  -2.2701  -2.2202
    -2.2188   9.5228  12.9670  14.8982  15.4827  16.5337  17.0304  17.1001
    17.2977  17.5218  17.9780  18.1789  18.2545  19.5485  19.7218  19.7443
    19.8563  20.1408  21.2247  22.1024  23.3622  25.7775

          k = 0.0000-0.5774 0.2041 (  3708 PWs)   bands (ev):

   -74.9930 -74.9930 -66.6418 -38.3330 -38.3330 -38.3330 -38.3318 -38.3318
   -38.3318 -32.7651 -32.7638 -32.7638  -2.2865  -2.2719  -2.2719  -2.2168
    -2.2168   9.8185  12.0217  15.4703  15.4703  16.8557  17.0228  17.0228
    17.3693  17.3693  17.9570  18.1798  18.1799  19.5621  19.5621  19.8233
    19.8773  19.8773  23.1408  23.4092  23.4092  23.6595

          k = 0.0000-0.5774 0.4082 (  3688 PWs)   bands (ev):

   -74.9935 -74.9925 -66.6418 -38.3421 -38.3405 -38.3403 -38.3244 -38.3240
   -38.3223 -32.7649 -32.7638 -32.7635  -2.2865  -2.2725  -2.2673  -2.2235
    -2.2145   9.8694  12.5237  14.9040  15.6292  16.4756  16.9739  17.0909
    17.3951  17.5245  18.0046  18.0194  18.3042  19.5516  19.5893  19.7452
    19.8465  19.8831  21.2695  21.5726  23.4389  25.7807

          k = 0.0000-0.5774 0.6124 (  3680 PWs)   bands (ev):

   -74.9939 -74.9921 -66.6417 -38.3489 -38.3467 -38.3465 -38.3180 -38.3179
   -38.3152 -32.7653 -32.7635 -32.7632  -2.2994  -2.2618  -2.2590  -2.2358
    -2.2089  10.1649  12.9961  14.6666  15.8567  15.9985  16.9183  17.0509
    17.3234  17.6006  17.8137  17.9028  18.5392  19.4002  19.4861  19.6427
    19.8745  19.9528  20.1838  20.2260  23.4123  24.9770

          k = 0.0000-0.5774-0.4082 (  3692 PWs)   bands (ev):

   -74.9941 -74.9919 -66.6418 -38.3513 -38.3492 -38.3492 -38.3155 -38.3155
   -38.3131 -32.7659 -32.7632 -32.7632  -2.3072  -2.2554  -2.2554  -2.2415
    -2.2056  10.4602  12.6117  15.4498  15.7898  16.2264  16.2264  17.2398
    17.2398  17.3360  17.9231  17.9231  18.6335  19.1126  19.4724  19.5848
    19.8332  19.8332  19.8831  20.0878  23.0986  24.0765

          k = 0.1667 0.2887-0.2041 (  3684 PWs)   bands (ev):

   -74.9949 -74.9911 -66.6417 -38.3452 -38.3451 -38.3348 -38.3293 -38.3193
   -38.3192 -32.7648 -32.7637 -32.7635  -2.2909  -2.2714  -2.2697  -2.2282
    -2.2170   8.7411  13.8554  15.3123  15.7002  16.6135  16.8396  16.8421
    17.3230  17.4556  18.0865  18.1729  18.5780  19.5918  19.6867  19.7428
    19.9825  20.8329  21.5179  21.6793  23.6696  25.3735

          k = 0.1667 0.2887-0.0000 (  3703 PWs)   bands (ev):

   -74.9952 -74.9908 -66.6418 -38.3471 -38.3383 -38.3381 -38.3267 -38.3262
   -38.3172 -32.7645 -32.7640 -32.7637  -2.2846  -2.2763  -2.2750  -2.2247
    -2.2219   8.4031  14.2760  15.3844  15.3969  16.6224  16.9166  16.9796
    17.1732  17.4824  18.1800  18.3157  18.6036  19.5946  19.7991  19.8763
    19.9462  21.4441  21.5562  23.0515  23.4610  25.7604

          k = 0.1667 0.2887-0.8165 (  3694 PWs)   bands (ev):

   -74.9941 -74.9919 -66.6418 -38.3489 -38.3426 -38.3400 -38.3249 -38.3216
   -38.3159 -32.7649 -32.7639 -32.7635  -2.2903  -2.2712  -2.2630  -2.2292
    -2.2135   9.6338  13.3628  14.7050  15.4407  16.4251  16.9650  17.0766
    17.2207  17.6749  17.8707  17.9906  18.4601  19.5541  19.5906  19.7120
    19.8887  20.3146  20.4852  20.7722  24.4627  25.4481

          k = 0.1667 0.2887-0.6124 (  3688 PWs)   bands (ev):

   -74.9930 -74.9930 -66.6418 -38.3485 -38.3469 -38.3326 -38.3323 -38.3167
   -38.3167 -32.7646 -32.7642 -32.7634  -2.2821  -2.2790  -2.2597  -2.2286
    -2.2129  10.3398  12.9711  14.1200  15.2947  16.3094  17.0815  17.1007
    17.4038  17.6894  17.9225  17.9390  18.3175  19.5229  19.5593  19.6594
    19.8282  19.8783  20.3656  20.4117  24.6373  25.5891

          k = 0.1667-0.6736 0.1361 (  3688 PWs)   bands (ev):

   -74.9935 -74.9925 -66.6418 -38.3421 -38.3405 -38.3403 -38.3244 -38.3240
   -38.3223 -32.7649 -32.7638 -32.7635  -2.2865  -2.2725  -2.2673  -2.2235
    -2.2145   9.8694  12.5237  14.9040  15.6292  16.4756  16.9739  17.0910
    17.3951  17.5245  18.0046  18.0194  18.3042  19.5516  19.5893  19.7452
    19.8465  19.8831  21.2695  21.5726  23.4389  25.7806

          k = 0.1667-0.6736 0.3402 (  3690 PWs)   bands (ev):

   -74.9939 -74.9921 -66.6418 -38.3463 -38.3340 -38.3335 -38.3311 -38.3307
   -38.3179 -32.7648 -32.7638 -32.7637  -2.2829  -2.2748  -2.2701  -2.2202
    -2.2188   9.5228  12.9670  14.8982  15.4827  16.5338  17.0304  17.1001
    17.2976  17.5218  17.9779  18.1789  18.2545  19.5485  19.7218  19.7443
    19.8563  20.1408  21.2247  22.1024  23.3622  25.7775

          k = 0.1667-0.6736 0.5443 (  3694 PWs)   bands (ev):

   -74.9941 -74.9919 -66.6418 -38.3489 -38.3426 -38.3400 -38.3249 -38.3216
   -38.3159 -32.7649 -32.7639 -32.7635  -2.2903  -2.2712  -2.2630  -2.2292
    -2.2135   9.6338  13.3628  14.7050  15.4407  16.4251  16.9650  17.0766
    17.2207  17.6749  17.8707  17.9906  18.4601  19.5541  19.5906  19.7120
    19.8887  20.3146  20.4852  20.7722  24.4627  25.4481

          k = 0.1667-0.6736-0.4763 (  3680 PWs)   bands (ev):

   -74.9939 -74.9921 -66.6417 -38.3489 -38.3467 -38.3465 -38.3180 -38.3179
   -38.3152 -32.7653 -32.7635 -32.7632  -2.2994  -2.2618  -2.2590  -2.2358
    -2.2089  10.1649  12.9961  14.6666  15.8567  15.9985  16.9183  17.0509
    17.3234  17.6006  17.8137  17.9028  18.5392  19.4002  19.4861  19.6427
    19.8745  19.9528  20.1838  20.2260  23.4123  24.9770

          k = 0.1667-0.6736-0.2722 (  3680 PWs)   bands (ev):

   -74.9935 -74.9925 -66.6418 -38.3511 -38.3491 -38.3408 -38.3240 -38.3150
   -38.3133 -32.7650 -32.7639 -32.7632  -2.2943  -2.2683  -2.2554  -2.2351
    -2.2093  10.5528  13.0826  14.3606  14.8292  16.4169  17.0594  17.0855
    17.3032  17.6899  17.7954  17.9032  18.4763  19.4498  19.5373  19.6484
    19.7860  19.8886  19.9317  19.9692  24.3707  25.2888

          k = 0.1667-0.6736-0.0680 (  3688 PWs)   bands (ev):

   -74.9930 -74.9930 -66.6418 -38.3485 -38.3469 -38.3326 -38.3323 -38.3167
   -38.3167 -32.7646 -32.7642 -32.7634  -2.2821  -2.2790  -2.2597  -2.2286
    -2.2129  10.3398  12.9712  14.1200  15.2947  16.3094  17.0815  17.1007
    17.4038  17.6894  17.9225  17.9390  18.3175  19.5229  19.5593  19.6594
    19.8282  19.8783  20.3657  20.4117  24.6373  25.5891

          k = 0.3333-0.5774 0.0000 (  3685 PWs)   bands (ev):

   -74.9930 -74.9930 -66.6418 -38.3503 -38.3415 -38.3408 -38.3237 -38.3231
   -38.3141 -32.7647 -32.7641 -32.7634  -2.2871  -2.2711  -2.2624  -2.2284
    -2.2132  10.3305  13.3483  13.5278  15.7330  16.0414  16.9968  17.3502
    17.3983  17.5827  17.9283  18.0171  18.2228  19.4332  19.5944  19.6874
    19.8520  20.0653  20.1275  20.6741  23.4426  27.6480

          k = 0.3333-0.5774 0.2041 (  3688 PWs)   bands (ev):

   -74.9930 -74.9930 -66.6418 -38.3485 -38.3469 -38.3326 -38.3323 -38.3167
   -38.3167 -32.7646 -32.7642 -32.7634  -2.2821  -2.2790  -2.2597  -2.2286
    -2.2129  10.3398  12.9712  14.1200  15.2947  16.3094  17.0815  17.1007
    17.4039  17.6894  17.9225  17.9389  18.3175  19.5229  19.5593  19.6594
    19.8282  19.8783  20.3657  20.4117  24.6373  25.5891

     the Fermi energy is    19.3470 ev

!    total energy              =   -1524.75919292 Ry
     total all-electron energy =    -20474.040204 Ry
     estimated scf accuracy    <          3.6E-09 Ry
     smearing contrib. (-TS)   =      -0.00897081 Ry
     internal energy E=F+TS    =   -1524.75022211 Ry

     The total energy is F=E-TS. E is the sum of the following terms:
     one-electron contribution =    -441.48396296 Ry
     hartree contribution      =     270.90362951 Ry
     xc contribution           =    -137.82430362 Ry
     ewald contribution        =    -677.45861314 Ry
     one-center paw contrib.   =    -538.88697190 Ry

     total magnetization       =     5.34 Bohr mag/cell
     absolute magnetization    =     5.62 Bohr mag/cell

     convergence has been achieved in  19 iterations

     negative rho (up, down):  0.000E+00 1.366E-04

     Forces acting on atoms (cartesian axes, Ry/au):

     atom    1 type  2   force =    -0.00000000    0.00000000    0.00000000
     atom    2 type  3   force =     0.00000000    0.00000000   -0.00000000
     atom    3 type  1   force =     0.00000000    0.00000000   -0.00000218
     atom    4 type  1   force =     0.00000000    0.00000000    0.00000218

     Total force =     0.000003     Total SCF correction =     0.000044
     SCF correction compared to forces is large: reduce conv_thr to get better values


     Computing stress (Cartesian axis) and pressure


     negative rho (up, down):  0.000E+00 1.366E-04
          total   stress  (Ry/bohr**3)                   (kbar)     P=      111.62
   0.00075879   0.00000000  -0.00000000          111.62        0.00       -0.00
   0.00000000   0.00075879  -0.00000000            0.00      111.62       -0.00
   0.00000000  -0.00000000   0.00075880            0.00       -0.00      111.62


     Writing all to output data dir ./outdir/Co2FeSn.save/
 
     init_run     :      1.05s CPU      1.12s WALL (       1 calls)
     electrons    :     51.38s CPU     52.91s WALL (       1 calls)
     forces       :      0.28s CPU      0.28s WALL (       1 calls)
     stress       :      0.59s CPU      0.59s WALL (       1 calls)

     Called by init_run:
     wfcinit      :      0.67s CPU      0.70s WALL (       1 calls)
     potinit      :      0.18s CPU      0.20s WALL (       1 calls)
     hinit0       :      0.12s CPU      0.13s WALL (       1 calls)

     Called by electrons:
     c_bands      :     40.28s CPU     41.52s WALL (      19 calls)
     sum_band     :      7.06s CPU      7.27s WALL (      19 calls)
     v_of_rho     :      0.40s CPU      0.41s WALL (      20 calls)
     newd         :      0.88s CPU      0.89s WALL (      20 calls)
     PAW_pot      :      2.85s CPU      2.88s WALL (      20 calls)
     mix_rho      :      0.05s CPU      0.05s WALL (      19 calls)

     Called by c_bands:
     init_us_2    :      0.31s CPU      0.32s WALL (    2624 calls)
     init_us_2:cp :      0.30s CPU      0.31s WALL (    2624 calls)
     cegterg      :     38.98s CPU     40.14s WALL (    1216 calls)

     Called by *egterg:
     cdiaghg      :      9.60s CPU      9.68s WALL (    5711 calls)
     h_psi        :     24.88s CPU     25.92s WALL (    5775 calls)
     s_psi        :      0.85s CPU      0.88s WALL (    5775 calls)
     g_psi        :      0.10s CPU      0.10s WALL (    4495 calls)

     Called by h_psi:
     h_psi:calbec :      1.20s CPU      1.24s WALL (    5775 calls)
     vloc_psi     :     22.69s CPU     23.66s WALL (    5775 calls)
     add_vuspsi   :      0.88s CPU      0.91s WALL (    5775 calls)

     General routines
     calbec       :      1.65s CPU      1.72s WALL (    7311 calls)
     fft          :      0.15s CPU      0.16s WALL (     538 calls)
     ffts         :      0.01s CPU      0.01s WALL (      78 calls)
     fftw         :     25.38s CPU     26.45s WALL (  283036 calls)
     interpolate  :      0.02s CPU      0.02s WALL (      40 calls)
 
     Parallel routines
 
     PWSCF        :     54.24s CPU     56.29s WALL

 
   This run was terminated on:  23:26:57   8Oct2025            

=------------------------------------------------------------------------------=
   JOB DONE.
=------------------------------------------------------------------------------=
