
     Program PWSCF v.7.1 starts on  8Oct2025 at 23:25: 6 

     This program is part of the open-source Quantum ESPRESSO suite
     for quantum simulation of materials; please cite
         "P. Giannozzi et al., J. Phys.:Condens. Matter 21 395502 (2009);
         "P. Giannozzi et al., J. Phys.:Condens. Matter 29 465901 (2017);
         "P. Giannozzi et al., J. Chem. Phys. 152 154105 (2020);
          URL http://www.quantum-espresso.org", 
     in publications or presentations arising from this work. More details at
     http://www.quantum-espresso.org/quote

     Parallel version (MPI), running on    20 processors

     MPI processes distributed on     1 nodes
     60696 MiB available memory on the printing compute node when the environment starts
 
     Reading input from Co2FeSn_70.in

     Current dimensions of program PWSCF are:
     Max number of different atomic species (ntypx) = 10
     Max number of k-points (npk) =  40000
     Max angular momentum in pseudopotentials (lmaxx) =  4
     file Co.pbe-spn-kjpaw_psl.0.3.1.UPF: wavefunction(s)  3P 3D renormalized
     file Fe.pbe-spn-kjpaw_psl.1.0.0.UPF: wavefunction(s)  3P 3D renormalized
     file Sn.pbe-dn-kjpaw_psl.1.0.0.UPF: wavefunction(s)  5S 5P 4D renormalized
 
     R & G space division:  proc/nbgrp/npool/nimage =      20
     Subspace diagonalization in iterative solution of the eigenvalue problem:
     a serial algorithm will be used

 
     Parallelization info
     --------------------
     sticks:   dense  smooth     PW     G-vecs:    dense   smooth      PW
     Min         117      57     17                 3753     1319     213
     Max         118      58     18                 3757     1324     216
     Sum        2347    1159    349                75089    26469    4279
 
     Using Slab Decomposition
 


     bravais-lattice index     =           14
     lattice parameter (alat)  =       7.8036  a.u.
     unit-cell volume          =     336.0264 (a.u.)^3
     number of atoms/cell      =            4
     number of atomic types    =            3
     number of electrons       =        64.00
     number of Kohn-Sham states=           38
     kinetic-energy cutoff     =      70.0000  Ry
     charge density cutoff     =     560.0000  Ry
     scf convergence threshold =      1.0E-08
     mixing beta               =       0.2000
     number of iterations used =            8  plain     mixing
     Exchange-correlation= SLA  PW   PBX  PBC
                           (   1   4   3   4   0   0   0)

     celldm(1)=   7.803620  celldm(2)=   1.000000  celldm(3)=   1.000000
     celldm(4)=   0.500000  celldm(5)=   0.500000  celldm(6)=   0.500000

     crystal axes: (cart. coord. in units of alat)
               a(1) = (   1.000000   0.000000   0.000000 )  
               a(2) = (   0.500000   0.866025   0.000000 )  
               a(3) = (   0.500000   0.288675   0.816497 )  

     reciprocal axes: (cart. coord. in units 2 pi/alat)
               b(1) = (  1.000000 -0.577350 -0.408248 )  
               b(2) = (  0.000000  1.154701 -0.408248 )  
               b(3) = (  0.000000  0.000000  1.224745 )  


     PseudoPot. # 1 for Co read from file:
     <HPC_PATH>
     MD5 check sum: 3c0a43779828c046024e4f3be63f8e67
     Pseudo is Projector augmented-wave + core cor, Zval = 17.0
     Generated using &quot;atomic&quot; code by A. Dal Corso  v.6.2.2
     Shape of augmentation charge: PSQ
     Using radial grid of 1193 points,  6 beta functions with: 
                l(1) =   0
                l(2) =   0
                l(3) =   1
                l(4) =   1
                l(5) =   2
                l(6) =   2
     Q(r) pseudized with 0 coefficients 


     PseudoPot. # 2 for Fe read from file:
     <HPC_PATH>
     MD5 check sum: fc81f059e5c5069939230b1155715ae8
     Pseudo is Projector augmented-wave + core cor, Zval = 16.0
     Generated using &quot;atomic&quot; code by A. Dal Corso  v.6.3
     Shape of augmentation charge: PSQ
     Using radial grid of 1191 points,  6 beta functions with: 
                l(1) =   0
                l(2) =   0
                l(3) =   1
                l(4) =   1
                l(5) =   2
                l(6) =   2
     Q(r) pseudized with 0 coefficients 


     PseudoPot. # 3 for Sn read from file:
     <HPC_PATH>
     MD5 check sum: 67f11dec737d427557dc41ea34975807
     Pseudo is Projector augmented-wave + core cor, Zval = 14.0
     Generated using &quot;atomic&quot; code by A. Dal Corso  v.6.3
     Shape of augmentation charge: PSQ
     Using radial grid of 1243 points,  6 beta functions with: 
                l(1) =   0
                l(2) =   0
                l(3) =   1
                l(4) =   1
                l(5) =   2
                l(6) =   2
     Q(r) pseudized with 0 coefficients 


     atomic species   valence    mass     pseudopotential
        Co            17.00    58.93300     Co( 1.00)
        Fe            16.00    55.84500     Fe( 1.00)
        Sn            14.00   118.71000     Sn( 1.00)

     Starting magnetic structure 
     atomic species   magnetization
        Co           0.500
        Fe           0.500
        Sn           0.000

     12 Sym. Ops., with inversion, found



   Cartesian axes

     site n.     atom                  positions (alat units)
         1           Fe  tau(   1) = (   1.0000000   0.5773503   0.4082483  )
         2           Sn  tau(   2) = (   0.0000000   0.0000000   0.0000000  )
         3           Co  tau(   3) = (   0.5000000   0.2886751   0.2041241  )
         4           Co  tau(   4) = (   1.5000000   0.8660254   0.6123724  )

     number of k points=    32  Gaussian smearing, width (Ry)=  0.0200
                       cart. coord. in units 2pi/alat
        k(    1) = (   0.0000000   0.0000000   0.0000000), wk =   0.0046296
        k(    2) = (   0.0000000   0.0000000   0.2041241), wk =   0.0092593
        k(    3) = (   0.0000000   0.0000000   0.4082483), wk =   0.0092593
        k(    4) = (   0.0000000   0.0000000  -0.6123724), wk =   0.0046296
        k(    5) = (   0.0000000   0.1924501  -0.0680414), wk =   0.0277778
        k(    6) = (   0.0000000   0.1924501   0.1360828), wk =   0.0277778
        k(    7) = (   0.0000000   0.1924501   0.3402069), wk =   0.0277778
        k(    8) = (   0.0000000   0.1924501  -0.6804138), wk =   0.0277778
        k(    9) = (   0.0000000   0.1924501  -0.4762897), wk =   0.0277778
        k(   10) = (   0.0000000   0.1924501  -0.2721655), wk =   0.0277778
        k(   11) = (   0.0000000   0.3849002  -0.1360828), wk =   0.0277778
        k(   12) = (   0.0000000   0.3849002   0.0680414), wk =   0.0277778
        k(   13) = (   0.0000000   0.3849002   0.2721655), wk =   0.0277778
        k(   14) = (   0.0000000   0.3849002  -0.7484552), wk =   0.0277778
        k(   15) = (   0.0000000   0.3849002  -0.5443311), wk =   0.0277778
        k(   16) = (   0.0000000   0.3849002  -0.3402069), wk =   0.0277778
        k(   17) = (   0.0000000  -0.5773503   0.2041241), wk =   0.0138889
        k(   18) = (   0.0000000  -0.5773503   0.4082483), wk =   0.0277778
        k(   19) = (   0.0000000  -0.5773503   0.6123724), wk =   0.0277778
        k(   20) = (   0.0000000  -0.5773503  -0.4082483), wk =   0.0138889
        k(   21) = (   0.1666667   0.2886751  -0.2041241), wk =   0.0555556
        k(   22) = (   0.1666667   0.2886751  -0.0000000), wk =   0.0277778
        k(   23) = (   0.1666667   0.2886751  -0.8164966), wk =   0.0555556
        k(   24) = (   0.1666667   0.2886751  -0.6123724), wk =   0.0277778
        k(   25) = (   0.1666667  -0.6735753   0.1360828), wk =   0.0555556
        k(   26) = (   0.1666667  -0.6735753   0.3402069), wk =   0.0555556
        k(   27) = (   0.1666667  -0.6735753   0.5443311), wk =   0.0555556
        k(   28) = (   0.1666667  -0.6735753  -0.4762897), wk =   0.0555556
        k(   29) = (   0.1666667  -0.6735753  -0.2721655), wk =   0.0555556
        k(   30) = (   0.1666667  -0.6735753  -0.0680414), wk =   0.0555556
        k(   31) = (   0.3333333  -0.5773503   0.0000000), wk =   0.0277778
        k(   32) = (   0.3333333  -0.5773503   0.2041241), wk =   0.0277778

     Dense  grid:    75089 G-vectors     FFT dimensions: (  60,  60,  60)

     Smooth grid:    26469 G-vectors     FFT dimensions: (  45,  45,  45)

     Estimated max dynamical RAM per process >      27.80 MB

     Estimated total dynamical RAM >     556.09 MB

     Check: negative core charge=   -0.000018
     Generating pointlists ...
     new r_m :   0.2526 (alat units)  1.9712 (a.u.) for type    1
     new r_m :   0.2526 (alat units)  1.9712 (a.u.) for type    2
     new r_m :   0.2526 (alat units)  1.9712 (a.u.) for type    3

     Initial potential from superposition of free atoms

     starting charge      63.9976, renormalised to      64.0000
     Starting wfcs are   39 randomized atomic wfcs
     Checking if some PAW data can be deallocated... 

     total cpu time spent up to now is        1.4 secs

     per-process dynamical memory:    79.2 Mb

     Self-consistent Calculation

     iteration #  1     ecut=    70.00 Ry     beta= 0.20
     Davidson diagonalization with overlap
     ethr =  1.00E-02,  avg # of iterations =  3.5

     total cpu time spent up to now is        4.0 secs

     total energy              =   -1523.38291351 Ry
     estimated scf accuracy    <       2.77439494 Ry

     total magnetization       =     7.97 Bohr mag/cell
     absolute magnetization    =     8.72 Bohr mag/cell

     iteration #  2     ecut=    70.00 Ry     beta= 0.20
     Davidson diagonalization with overlap
     ethr =  4.33E-03,  avg # of iterations =  1.3

     negative rho (up, down):  0.000E+00 1.166E-04

     total cpu time spent up to now is        6.0 secs

     total energy              =   -1524.31535646 Ry
     estimated scf accuracy    <       1.98172805 Ry

     total magnetization       =     7.47 Bohr mag/cell
     absolute magnetization    =     8.34 Bohr mag/cell

     iteration #  3     ecut=    70.00 Ry     beta= 0.20
     Davidson diagonalization with overlap
     ethr =  3.10E-03,  avg # of iterations =  1.4

     negative rho (up, down):  0.000E+00 2.563E-04

     total cpu time spent up to now is        8.1 secs

     total energy              =   -1524.50750690 Ry
     estimated scf accuracy    <       2.26987017 Ry

     total magnetization       =     6.78 Bohr mag/cell
     absolute magnetization    =     7.62 Bohr mag/cell

     iteration #  4     ecut=    70.00 Ry     beta= 0.20
     Davidson diagonalization with overlap
     ethr =  3.10E-03,  avg # of iterations =  1.1

     negative rho (up, down):  0.000E+00 2.426E-04

     total cpu time spent up to now is       10.1 secs

     total energy              =   -1524.70885433 Ry
     estimated scf accuracy    <       0.10532828 Ry

     total magnetization       =     5.55 Bohr mag/cell
     absolute magnetization    =     6.43 Bohr mag/cell

     iteration #  5     ecut=    70.00 Ry     beta= 0.20
     Davidson diagonalization with overlap
     ethr =  1.65E-04,  avg # of iterations =  5.2

     negative rho (up, down):  0.000E+00 2.404E-04

     total cpu time spent up to now is       13.1 secs

     total energy              =   -1524.73668912 Ry
     estimated scf accuracy    <       0.03021715 Ry

     total magnetization       =     5.43 Bohr mag/cell
     absolute magnetization    =     6.05 Bohr mag/cell

     iteration #  6     ecut=    70.00 Ry     beta= 0.20
     Davidson diagonalization with overlap
     ethr =  4.72E-05,  avg # of iterations =  4.1

     negative rho (up, down):  0.000E+00 2.041E-04

     total cpu time spent up to now is       15.7 secs

     total energy              =   -1524.74215649 Ry
     estimated scf accuracy    <       0.01394723 Ry

     total magnetization       =     5.35 Bohr mag/cell
     absolute magnetization    =     5.87 Bohr mag/cell

     iteration #  7     ecut=    70.00 Ry     beta= 0.20
     Davidson diagonalization with overlap
     ethr =  2.18E-05,  avg # of iterations =  3.8

     negative rho (up, down):  0.000E+00 1.714E-04

     total cpu time spent up to now is       18.3 secs

     total energy              =   -1524.74680611 Ry
     estimated scf accuracy    <       0.00289520 Ry

     total magnetization       =     5.18 Bohr mag/cell
     absolute magnetization    =     5.62 Bohr mag/cell

     iteration #  8     ecut=    70.00 Ry     beta= 0.20
     Davidson diagonalization with overlap
     ethr =  4.52E-06,  avg # of iterations =  6.6

     negative rho (up, down):  0.000E+00 1.615E-04

     total cpu time spent up to now is       21.5 secs

     total energy              =   -1524.74826963 Ry
     estimated scf accuracy    <       0.00220502 Ry

     total magnetization       =     5.39 Bohr mag/cell
     absolute magnetization    =     5.75 Bohr mag/cell

     iteration #  9     ecut=    70.00 Ry     beta= 0.20
     Davidson diagonalization with overlap
     ethr =  3.45E-06,  avg # of iterations =  2.0

     negative rho (up, down):  0.000E+00 1.536E-04

     total cpu time spent up to now is       23.7 secs

     total energy              =   -1524.74799605 Ry
     estimated scf accuracy    <       0.00098915 Ry

     total magnetization       =     5.38 Bohr mag/cell
     absolute magnetization    =     5.72 Bohr mag/cell

     iteration # 10     ecut=    70.00 Ry     beta= 0.20
     Davidson diagonalization with overlap
     ethr =  1.55E-06,  avg # of iterations =  4.0

     negative rho (up, down):  0.000E+00 1.569E-04

     total cpu time spent up to now is       26.7 secs

     total energy              =   -1524.74860448 Ry
     estimated scf accuracy    <       0.00331143 Ry

     total magnetization       =     5.29 Bohr mag/cell
     absolute magnetization    =     5.57 Bohr mag/cell

     iteration # 11     ecut=    70.00 Ry     beta= 0.20
     Davidson diagonalization with overlap
     ethr =  1.55E-06,  avg # of iterations =  2.9

     negative rho (up, down):  0.000E+00 1.559E-04

     total cpu time spent up to now is       29.0 secs

     total energy              =   -1524.74894306 Ry
     estimated scf accuracy    <       0.00009191 Ry

     total magnetization       =     5.35 Bohr mag/cell
     absolute magnetization    =     5.64 Bohr mag/cell

     iteration # 12     ecut=    70.00 Ry     beta= 0.20
     Davidson diagonalization with overlap
     ethr =  1.44E-07,  avg # of iterations =  5.1

     negative rho (up, down):  0.000E+00 1.579E-04

     total cpu time spent up to now is       32.3 secs

     total energy              =   -1524.74902321 Ry
     estimated scf accuracy    <       0.00009932 Ry

     total magnetization       =     5.33 Bohr mag/cell
     absolute magnetization    =     5.60 Bohr mag/cell

     iteration # 13     ecut=    70.00 Ry     beta= 0.20
     Davidson diagonalization with overlap
     ethr =  1.44E-07,  avg # of iterations =  1.6

     negative rho (up, down):  0.000E+00 1.579E-04

     total cpu time spent up to now is       34.5 secs

     total energy              =   -1524.74902830 Ry
     estimated scf accuracy    <       0.00001514 Ry

     total magnetization       =     5.34 Bohr mag/cell
     absolute magnetization    =     5.61 Bohr mag/cell

     iteration # 14     ecut=    70.00 Ry     beta= 0.20
     Davidson diagonalization with overlap
     ethr =  2.37E-08,  avg # of iterations =  5.5

     negative rho (up, down):  0.000E+00 1.597E-04

     total cpu time spent up to now is       37.6 secs

     total energy              =   -1524.74902979 Ry
     estimated scf accuracy    <       0.00000871 Ry

     total magnetization       =     5.33 Bohr mag/cell
     absolute magnetization    =     5.61 Bohr mag/cell

     iteration # 15     ecut=    70.00 Ry     beta= 0.20
     Davidson diagonalization with overlap
     ethr =  1.36E-08,  avg # of iterations =  4.7

     negative rho (up, down):  0.000E+00 1.604E-04

     total cpu time spent up to now is       40.7 secs

     total energy              =   -1524.74903745 Ry
     estimated scf accuracy    <       0.00000658 Ry

     total magnetization       =     5.34 Bohr mag/cell
     absolute magnetization    =     5.62 Bohr mag/cell

     iteration # 16     ecut=    70.00 Ry     beta= 0.20
     Davidson diagonalization with overlap
     ethr =  1.03E-08,  avg # of iterations =  2.1

     negative rho (up, down):  0.000E+00 1.604E-04

     total cpu time spent up to now is       42.9 secs

     total energy              =   -1524.74903843 Ry
     estimated scf accuracy    <       0.00000042 Ry

     total magnetization       =     5.34 Bohr mag/cell
     absolute magnetization    =     5.62 Bohr mag/cell

     iteration # 17     ecut=    70.00 Ry     beta= 0.20
     Davidson diagonalization with overlap
     ethr =  6.49E-10,  avg # of iterations =  6.8

     negative rho (up, down):  0.000E+00 1.604E-04

     total cpu time spent up to now is       46.5 secs

     total energy              =   -1524.74903879 Ry
     estimated scf accuracy    <       0.00000019 Ry

     total magnetization       =     5.34 Bohr mag/cell
     absolute magnetization    =     5.62 Bohr mag/cell

     iteration # 18     ecut=    70.00 Ry     beta= 0.20
     Davidson diagonalization with overlap
     ethr =  2.96E-10,  avg # of iterations =  3.2

     negative rho (up, down):  0.000E+00 1.607E-04

     total cpu time spent up to now is       49.1 secs

     total energy              =   -1524.74903892 Ry
     estimated scf accuracy    <       0.00000003 Ry

     total magnetization       =     5.34 Bohr mag/cell
     absolute magnetization    =     5.62 Bohr mag/cell

     iteration # 19     ecut=    70.00 Ry     beta= 0.20
     Davidson diagonalization with overlap
     ethr =  4.47E-11,  avg # of iterations =  5.5

     negative rho (up, down):  0.000E+00 1.607E-04
 
     Magnetic moment per site  (integrated on atomic sphere of radius R)
     atom   1 (R=0.253)  charge= 14.4758  magn=  2.8205
     atom   2 (R=0.253)  charge= 11.1693  magn= -0.0081
     atom   3 (R=0.253)  charge= 15.8011  magn=  1.2952
     atom   4 (R=0.253)  charge= 15.8011  magn=  1.2952

     total cpu time spent up to now is       52.3 secs

     End of self-consistent calculation

 ------ SPIN UP ------------


          k = 0.0000 0.0000 0.0000 (  3287 PWs)   bands (ev):

   -76.5520 -76.5458 -69.8980 -39.8519 -39.8518 -39.8518 -39.8277 -39.8277
   -39.8277 -35.9402 -35.9402 -35.9402  -2.2824  -2.2824  -2.2824  -2.2230
    -2.2230   7.3709  14.7397  14.7397  14.9315  14.9315  14.9315  15.6473
    15.6473  15.6473  17.2161  17.2161  17.7744  17.7744  17.8393  17.8393
    17.8394  22.9773  23.2593  23.2593  23.2593  24.2640

          k = 0.0000 0.0000 0.2041 (  3329 PWs)   bands (ev):

   -76.5516 -76.5462 -69.8981 -39.8508 -39.8506 -39.8506 -39.8300 -39.8300
   -39.8294 -35.9407 -35.9406 -35.9406  -2.2833  -2.2794  -2.2794  -2.2206
    -2.2206   7.7435  14.4875  14.4875  14.5044  15.3552  15.3552  15.5636
    15.6317  15.6317  17.1829  17.1829  17.4823  17.5524  17.5524  17.8789
    17.8789  20.8496  22.6810  22.6810  23.1161  24.4274

          k = 0.0000 0.0000 0.4082 (  3305 PWs)   bands (ev):

   -76.5504 -76.5473 -69.8981 -39.8465 -39.8461 -39.8461 -39.8342 -39.8342
   -39.8335 -35.9410 -35.9402 -35.9402  -2.2850  -2.2737  -2.2737  -2.2143
    -2.2143   8.7820  13.0913  14.3519  14.3519  15.4657  15.4915  15.4915
    16.0119  16.0119  17.0685  17.0685  17.1415  17.3059  17.3059  17.7535
    17.7535  18.8896  22.2812  22.2812  22.8677  23.5727

          k = 0.0000 0.0000-0.6124 (  3316 PWs)   bands (ev):

   -76.5489 -76.5489 -69.8982 -39.8412 -39.8412 -39.8406 -39.8397 -39.8397
   -39.8393 -35.9412 -35.9403 -35.9403  -2.2859  -2.2714  -2.2714  -2.2108
    -2.2108   9.7745  11.8197  14.3229  14.3229  15.4784  15.4784  15.5174
    16.2877  16.2877  16.9821  16.9821  17.1581  17.2477  17.2477  17.6146
    17.6146  18.0138  22.2701  22.2701  22.8160  23.0472

          k = 0.0000 0.1925-0.0680 (  3329 PWs)   bands (ev):

   -76.5516 -76.5462 -69.8981 -39.8508 -39.8506 -39.8506 -39.8300 -39.8300
   -39.8294 -35.9407 -35.9406 -35.9406  -2.2833  -2.2794  -2.2794  -2.2206
    -2.2206   7.7435  14.4875  14.4875  14.5044  15.3552  15.3552  15.5636
    15.6317  15.6317  17.1829  17.1829  17.4823  17.5524  17.5524  17.8789
    17.8789  20.8496  22.6810  22.6810  23.1161  24.4274

          k = 0.0000 0.1925 0.1361 (  3327 PWs)   bands (ev):

   -76.5515 -76.5463 -69.8981 -39.8533 -39.8532 -39.8446 -39.8352 -39.8275
   -39.8275 -35.9409 -35.9405 -35.9405  -2.2886  -2.2755  -2.2755  -2.2234
    -2.2174   7.8650  13.9065  14.8999  15.1032  15.1032  15.3181  15.3980
    15.6886  15.6886  17.0519  17.2587  17.4492  17.5061  17.5061  17.7657
    17.9229  21.3569  21.3685  21.3685  23.4235  23.5009

          k = 0.0000 0.1925 0.3402 (  3328 PWs)   bands (ev):

   -76.5506 -76.5471 -69.8982 -39.8525 -39.8522 -39.8425 -39.8378 -39.8285
   -39.8284 -35.9415 -35.9403 -35.9402  -2.2906  -2.2711  -2.2694  -2.2221
    -2.2113   8.6742  13.3306  14.5420  14.7539  15.2832  15.4700  15.6249
    15.8147  15.9063  16.8857  17.0814  17.2309  17.2438  17.3205  17.7149
    17.8928  19.3849  20.5309  20.5390  22.8871  24.6651

          k = 0.0000 0.1925-0.6804 (  3321 PWs)   bands (ev):

   -76.5494 -76.5484 -69.8982 -39.8494 -39.8482 -39.8477 -39.8328 -39.8327
   -39.8312 -35.9413 -35.9404 -35.9401  -2.2861  -2.2721  -2.2670  -2.2175
    -2.2085   9.8013  12.2988  14.0489  14.5458  15.3345  15.4740  15.5870
    16.2543  16.3316  16.8054  16.8162  17.0854  17.1651  17.3593  17.6919
    17.7030  18.1215  19.9813  20.4039  22.7207  25.3052

          k = 0.0000 0.1925-0.4763 (  3334 PWs)   bands (ev):

   -76.5498 -76.5480 -69.8982 -39.8538 -39.8420 -39.8412 -39.8395 -39.8391
   -39.8272 -35.9412 -35.9406 -35.9404  -2.2825  -2.2744  -2.2698  -2.2145
    -2.2126   9.4571  12.6980  14.1957  14.3448  15.2824  15.4413  15.6500
    16.1664  16.2691  16.7540  16.9044  17.0299  17.2214  17.2357  17.6920
    17.9387  18.4593  19.8710  21.0564  22.8091  25.2286

          k = 0.0000 0.1925-0.2722 (  3325 PWs)   bands (ev):

   -76.5509 -76.5468 -69.8982 -39.8541 -39.8460 -39.8455 -39.8351 -39.8344
   -39.8265 -35.9410 -35.9404 -35.9404  -2.2842  -2.2759  -2.2746  -2.2187
    -2.2162   8.3379  13.7700  14.2804  14.8929  15.1435  15.5088  15.5107
    15.7699  15.8229  16.9892  17.2335  17.2390  17.2674  17.3410  17.7056
    18.0174  20.1551  20.2241  22.2952  23.1729  25.1623

          k = 0.0000 0.3849-0.1361 (  3305 PWs)   bands (ev):

   -76.5504 -76.5473 -69.8981 -39.8465 -39.8461 -39.8461 -39.8342 -39.8342
   -39.8334 -35.9410 -35.9402 -35.9402  -2.2850  -2.2737  -2.2737  -2.2143
    -2.2143   8.7820  13.0913  14.3518  14.3519  15.4657  15.4915  15.4915
    16.0119  16.0119  17.0685  17.0685  17.1415  17.3059  17.3059  17.7535
    17.7535  18.8895  22.2812  22.2812  22.8677  23.5727

          k = 0.0000 0.3849 0.0680 (  3328 PWs)   bands (ev):

   -76.5506 -76.5471 -69.8982 -39.8525 -39.8522 -39.8425 -39.8378 -39.8285
   -39.8284 -35.9415 -35.9403 -35.9402  -2.2906  -2.2711  -2.2694  -2.2221
    -2.2113   8.6742  13.3306  14.5420  14.7539  15.2832  15.4700  15.6249
    15.8147  15.9063  16.8857  17.0814  17.2309  17.2438  17.3205  17.7149
    17.8928  19.3849  20.5309  20.5390  22.8871  24.6651

          k = 0.0000 0.3849 0.2722 (  3347 PWs)   bands (ev):

   -76.5504 -76.5473 -69.8983 -39.8555 -39.8555 -39.8503 -39.8302 -39.8260
   -39.8260 -35.9422 -35.9402 -35.9402  -2.3009  -2.2620  -2.2620  -2.2297
    -2.2056   9.1915  12.9164  14.8305  15.3440  15.3914  15.4952  15.4952
    15.8650  15.8650  16.6015  17.0379  17.0379  17.1664  17.3039  17.7494
    17.7681  18.9563  19.2551  19.2551  22.3755  23.0286

          k = 0.0000 0.3849-0.7485 (  3314 PWs)   bands (ev):

   -76.5497 -76.5480 -69.8982 -39.8555 -39.8541 -39.8538 -39.8270 -39.8269
   -39.8245 -35.9418 -35.9401 -35.9398  -2.2991  -2.2615  -2.2588  -2.2298
    -2.2029  10.0445  12.6718  14.1259  15.0281  15.1719  15.5358  15.7517
    15.9656  16.1698  16.6890  16.8851  16.9582  17.0604  17.4092  17.6361
    17.8209  18.2090  18.4503  18.7346  22.5240  24.1194

          k = 0.0000 0.3849-0.5443 (  3318 PWs)   bands (ev):

   -76.5489 -76.5489 -69.8982 -39.8570 -39.8492 -39.8484 -39.8321 -39.8320
   -39.8234 -35.9412 -35.9405 -35.9401  -2.2867  -2.2708  -2.2623  -2.2225
    -2.2069  10.2190  13.0242  13.2422  14.6904  15.0276  15.4276  15.9077
    16.0705  16.4986  16.6262  16.7119  16.9430  17.0893  17.2279  17.9198
    18.0135  18.0566  18.4717  19.3480  22.6000  27.0628

          k = 0.0000 0.3849-0.3402 (  3334 PWs)   bands (ev):

   -76.5498 -76.5480 -69.8982 -39.8538 -39.8420 -39.8412 -39.8395 -39.8391
   -39.8272 -35.9412 -35.9406 -35.9404  -2.2825  -2.2744  -2.2698  -2.2145
    -2.2126   9.4571  12.6980  14.1957  14.3448  15.2824  15.4413  15.6500
    16.1664  16.2691  16.7540  16.9045  17.0299  17.2214  17.2357  17.6920
    17.9387  18.4593  19.8710  21.0564  22.8091  25.2279

          k = 0.0000-0.5774 0.2041 (  3316 PWs)   bands (ev):

   -76.5489 -76.5489 -69.8982 -39.8412 -39.8412 -39.8406 -39.8397 -39.8397
   -39.8393 -35.9412 -35.9403 -35.9403  -2.2859  -2.2714  -2.2714  -2.2108
    -2.2108   9.7745  11.8197  14.3229  14.3229  15.4784  15.4784  15.5174
    16.2876  16.2876  16.9822  16.9822  17.1580  17.2477  17.2477  17.6146
    17.6147  18.0138  22.2701  22.2701  22.8160  23.0472

          k = 0.0000-0.5774 0.4082 (  3321 PWs)   bands (ev):

   -76.5494 -76.5484 -69.8982 -39.8494 -39.8482 -39.8477 -39.8328 -39.8327
   -39.8312 -35.9413 -35.9404 -35.9401  -2.2861  -2.2721  -2.2670  -2.2175
    -2.2085   9.8013  12.2988  14.0489  14.5458  15.3345  15.4740  15.5870
    16.2543  16.3316  16.8054  16.8162  17.0854  17.1651  17.3593  17.6919
    17.7030  18.1215  19.9813  20.4039  22.7207  25.3052

          k = 0.0000-0.5774 0.6124 (  3314 PWs)   bands (ev):

   -76.5497 -76.5480 -69.8982 -39.8555 -39.8541 -39.8538 -39.8270 -39.8269
   -39.8245 -35.9418 -35.9401 -35.9398  -2.2991  -2.2615  -2.2588  -2.2298
    -2.2029  10.0445  12.6718  14.1259  15.0281  15.1719  15.5358  15.7517
    15.9656  16.1698  16.6890  16.8851  16.9582  17.0604  17.4091  17.6361
    17.8209  18.2090  18.4503  18.7346  22.5240  24.1194

          k = 0.0000-0.5774-0.4082 (  3306 PWs)   bands (ev):

   -76.5499 -76.5478 -69.8982 -39.8572 -39.8563 -39.8563 -39.8249 -39.8248
   -39.8219 -35.9421 -35.9397 -35.9397  -2.3069  -2.2552  -2.2552  -2.2355
    -2.1998  10.2865  12.4153  14.5416  14.8645  15.6739  15.6739  15.8903
    16.0368  16.0368  16.0514  16.9576  17.1502  17.1502  17.3633  17.6102
    17.7412  18.0575  18.0575  18.1867  22.2362  22.9233

          k = 0.1667 0.2887-0.2041 (  3328 PWs)   bands (ev):

   -76.5506 -76.5471 -69.8982 -39.8525 -39.8522 -39.8425 -39.8378 -39.8286
   -39.8284 -35.9415 -35.9403 -35.9402  -2.2906  -2.2711  -2.2694  -2.2221
    -2.2113   8.6742  13.3306  14.5420  14.7539  15.2832  15.4700  15.6249
    15.8147  15.9063  16.8857  17.0814  17.2310  17.2438  17.3205  17.7149
    17.8928  19.3849  20.5309  20.5390  22.8871  24.6651

          k = 0.1667 0.2887-0.0000 (  3325 PWs)   bands (ev):

   -76.5509 -76.5468 -69.8982 -39.8541 -39.8460 -39.8455 -39.8351 -39.8344
   -39.8265 -35.9410 -35.9404 -35.9404  -2.2842  -2.2759  -2.2746  -2.2187
    -2.2162   8.3379  13.7700  14.2804  14.8929  15.1435  15.5088  15.5107
    15.7699  15.8229  16.9892  17.2335  17.2389  17.2674  17.3410  17.7056
    18.0174  20.1551  20.2241  22.2952  23.1729  25.1621

          k = 0.1667 0.2887-0.8165 (  3317 PWs)   bands (ev):

   -76.5499 -76.5478 -69.8982 -39.8559 -39.8496 -39.8474 -39.8334 -39.8303
   -39.8250 -35.9414 -35.9404 -35.9400  -2.2900  -2.2708  -2.2627  -2.2231
    -2.2074   9.5533  12.9327  14.2012  14.5807  15.2087  15.5717  15.7693
    15.8555  16.2370  16.6750  16.8854  16.9663  17.2250  17.2602  17.7234
    17.9388  18.8028  18.9337  19.3857  23.9140  24.6929

          k = 0.1667 0.2887-0.6124 (  3314 PWs)   bands (ev):

   -76.5489 -76.5489 -69.8982 -39.8557 -39.8538 -39.8406 -39.8402 -39.8258
   -39.8257 -35.9411 -35.9408 -35.9399  -2.2817  -2.2786  -2.2594  -2.2227
    -2.2066  10.2286  12.7301  13.6185  14.5702  15.1345  15.5949  15.6451
    16.0742  16.5337  16.6099  16.6959  16.9695  17.1932  17.3624  17.7466
    17.8045  18.0765  18.7945  18.8598  24.1361  24.7489

          k = 0.1667-0.6736 0.1361 (  3321 PWs)   bands (ev):

   -76.5494 -76.5484 -69.8982 -39.8494 -39.8482 -39.8477 -39.8328 -39.8327
   -39.8312 -35.9413 -35.9404 -35.9401  -2.2861  -2.2721  -2.2670  -2.2175
    -2.2085   9.8013  12.2988  14.0489  14.5458  15.3345  15.4740  15.5870
    16.2543  16.3316  16.8054  16.8162  17.0854  17.1651  17.3593  17.6919
    17.7030  18.1215  19.9813  20.4039  22.7207  25.3052

          k = 0.1667-0.6736 0.3402 (  3334 PWs)   bands (ev):

   -76.5498 -76.5480 -69.8982 -39.8538 -39.8420 -39.8412 -39.8395 -39.8391
   -39.8272 -35.9412 -35.9406 -35.9404  -2.2825  -2.2744  -2.2698  -2.2145
    -2.2126   9.4571  12.6980  14.1957  14.3448  15.2824  15.4413  15.6500
    16.1664  16.2691  16.7540  16.9045  17.0299  17.2214  17.2357  17.6920
    17.9387  18.4593  19.8710  21.0564  22.8091  25.2279

          k = 0.1667-0.6736 0.5443 (  3317 PWs)   bands (ev):

   -76.5499 -76.5478 -69.8982 -39.8559 -39.8496 -39.8474 -39.8334 -39.8303
   -39.8250 -35.9414 -35.9404 -35.9400  -2.2900  -2.2708  -2.2627  -2.2231
    -2.2074   9.5533  12.9327  14.2012  14.5807  15.2087  15.5717  15.7693
    15.8555  16.2370  16.6750  16.8854  16.9663  17.2250  17.2601  17.7235
    17.9388  18.8028  18.9337  19.3857  23.9140  24.6929

          k = 0.1667-0.6736-0.4763 (  3314 PWs)   bands (ev):

   -76.5497 -76.5480 -69.8982 -39.8555 -39.8541 -39.8538 -39.8270 -39.8269
   -39.8245 -35.9418 -35.9401 -35.9398  -2.2991  -2.2615  -2.2588  -2.2298
    -2.2029  10.0445  12.6718  14.1259  15.0281  15.1719  15.5358  15.7517
    15.9656  16.1698  16.6890  16.8851  16.9583  17.0604  17.4091  17.6361
    17.8209  18.2090  18.4503  18.7346  22.5240  24.1194

          k = 0.1667-0.6736-0.2722 (  3322 PWs)   bands (ev):

   -76.5494 -76.5483 -69.8982 -39.8580 -39.8560 -39.8485 -39.8328 -39.8244
   -39.8227 -35.9416 -35.9405 -35.9398  -2.2941  -2.2681  -2.2552  -2.2292
    -2.2032  10.3934  12.8382  13.8610  14.4589  15.2973  15.5967  15.6992
    15.8950  16.2886  16.6763  16.7253  17.1191  17.2508  17.4633  17.4710
    17.8504  18.1034  18.1711  18.1939  23.6888  24.4388

          k = 0.1667-0.6736-0.0680 (  3314 PWs)   bands (ev):

   -76.5489 -76.5489 -69.8982 -39.8557 -39.8538 -39.8406 -39.8402 -39.8258
   -39.8257 -35.9410 -35.9408 -35.9399  -2.2817  -2.2786  -2.2594  -2.2227
    -2.2066  10.2286  12.7301  13.6185  14.5702  15.1345  15.5949  15.6451
    16.0742  16.5337  16.6099  16.6959  16.9695  17.1932  17.3624  17.7466
    17.8046  18.0765  18.7945  18.8598  24.1361  24.7489

          k = 0.3333-0.5774 0.0000 (  3318 PWs)   bands (ev):

   -76.5489 -76.5489 -69.8982 -39.8570 -39.8492 -39.8484 -39.8321 -39.8320
   -39.8234 -35.9412 -35.9405 -35.9401  -2.2867  -2.2708  -2.2623  -2.2225
    -2.2069  10.2190  13.0242  13.2422  14.6904  15.0276  15.4276  15.9077
    16.0705  16.4986  16.6262  16.7119  16.9430  17.0893  17.2279  17.9198
    18.0135  18.0566  18.4717  19.3480  22.6000  27.0628

          k = 0.3333-0.5774 0.2041 (  3314 PWs)   bands (ev):

   -76.5489 -76.5489 -69.8982 -39.8557 -39.8538 -39.8406 -39.8402 -39.8258
   -39.8257 -35.9411 -35.9408 -35.9399  -2.2817  -2.2786  -2.2594  -2.2227
    -2.2066  10.2286  12.7301  13.6185  14.5702  15.1345  15.5949  15.6451
    16.0742  16.5337  16.6099  16.6959  16.9695  17.1932  17.3624  17.7466
    17.8046  18.0765  18.7945  18.8598  24.1361  24.7489

 ------ SPIN DOWN ----------


          k = 0.0000 0.0000 0.0000 (  3287 PWs)   bands (ev):

   -75.0074 -75.0009 -66.6461 -38.3505 -38.3505 -38.3505 -38.3241 -38.3241
   -38.3241 -32.7665 -32.7665 -32.7665  -2.2838  -2.2838  -2.2838  -2.2295
    -2.2295   7.4388  15.5010  15.5010  15.5010  16.4319  16.4319  17.3951
    17.3951  17.3951  18.9869  18.9869  18.9869  19.6215  19.6215  20.0851
    20.0851  23.3104  23.6452  23.6452  23.6452  25.0330

          k = 0.0000 0.0000 0.2041 (  3329 PWs)   bands (ev):

   -75.0069 -75.0013 -66.6463 -38.3493 -38.3491 -38.3491 -38.3266 -38.3266
   -38.3261 -32.7671 -32.7669 -32.7669  -2.2847  -2.2807  -2.2807  -2.2273
    -2.2273   7.8100  14.9507  15.4735  15.4735  16.6201  16.6201  17.2323
    17.3382  17.3382  18.4672  18.7570  18.7570  19.6650  19.6650  20.0153
    20.0153  21.9776  23.4364  23.4364  23.4827  24.8636

          k = 0.0000 0.0000 0.4082 (  3305 PWs)   bands (ev):

   -75.0057 -75.0025 -66.6463 -38.3445 -38.3442 -38.3442 -38.3313 -38.3313
   -38.3307 -32.7675 -32.7666 -32.7666  -2.2865  -2.2751  -2.2751  -2.2213
    -2.2213   8.8435  13.3411  15.4632  15.4632  16.8939  16.9207  16.9207
    17.3137  17.3137  18.0655  18.3604  18.3604  19.6235  19.6235  19.9162
    19.9162  20.4823  23.1685  23.2894  23.2894  24.1511

          k = 0.0000 0.0000-0.6124 (  3316 PWs)   bands (ev):

   -75.0041 -75.0041 -66.6464 -38.3386 -38.3386 -38.3382 -38.3374 -38.3374
   -38.3370 -32.7677 -32.7667 -32.7667  -2.2874  -2.2729  -2.2729  -2.2179
    -2.2179   9.8184  12.0218  15.4694  15.4694  16.8541  17.0210  17.0210
    17.3676  17.3676  17.9558  18.1776  18.1776  19.5598  19.5598  19.8218
    19.8751  19.8751  23.1407  23.4073  23.4073  23.6578

          k = 0.0000 0.1925-0.0680 (  3329 PWs)   bands (ev):

   -75.0069 -75.0013 -66.6463 -38.3493 -38.3491 -38.3491 -38.3266 -38.3266
   -38.3261 -32.7671 -32.7669 -32.7669  -2.2847  -2.2807  -2.2807  -2.2273
    -2.2273   7.8100  14.9507  15.4735  15.4735  16.6201  16.6201  17.2324
    17.3382  17.3382  18.4673  18.7569  18.7570  19.6650  19.6650  20.0153
    20.0153  21.9776  23.4364  23.4364  23.4827  24.8636

          k = 0.0000 0.1925 0.1361 (  3327 PWs)   bands (ev):

   -75.0068 -75.0014 -66.6463 -38.3519 -38.3519 -38.3427 -38.3324 -38.3240
   -38.3240 -32.7672 -32.7668 -32.7668  -2.2900  -2.2769  -2.2769  -2.2303
    -2.2240   7.9317  14.7109  15.6364  15.6364  16.5950  16.6026  17.0055
    17.4103  17.4103  18.5383  18.5384  18.6826  19.6110  19.6946  19.8973
    20.0555  21.9952  22.3865  22.3865  24.0808  24.4110

          k = 0.0000 0.1925 0.3402 (  3328 PWs)   bands (ev):

   -75.0060 -75.0022 -66.6464 -38.3511 -38.3507 -38.3404 -38.3352 -38.3252
   -38.3250 -32.7679 -32.7667 -32.7666  -2.2920  -2.2725  -2.2707  -2.2293
    -2.2181   8.7411  13.8549  15.3117  15.6994  16.6121  16.8380  16.8399
    17.3213  17.4541  18.0841  18.1707  18.5751  19.5884  19.6834  19.7406
    19.9794  20.8305  21.5165  21.6771  23.6680  25.3732

          k = 0.0000 0.1925-0.6804 (  3321 PWs)   bands (ev):

   -75.0046 -75.0035 -66.6464 -38.3478 -38.3463 -38.3460 -38.3298 -38.3297
   -38.3281 -32.7678 -32.7669 -32.7666  -2.2875  -2.2735  -2.2684  -2.2246
    -2.2156   9.8693  12.5237  14.9035  15.6284  16.4741  16.9720  17.0893
    17.3931  17.5227  18.0025  18.0171  18.3018  19.5491  19.5863  19.7430
    19.8440  19.8809  21.2672  21.5702  23.4377  25.7800

          k = 0.0000 0.1925-0.4763 (  3334 PWs)   bands (ev):

   -75.0050 -75.0031 -66.6464 -38.3524 -38.3395 -38.3390 -38.3369 -38.3367
   -38.3237 -32.7677 -32.7671 -32.7668  -2.2840  -2.2759  -2.2711  -2.2214
    -2.2199   9.5227  12.9669  14.8978  15.4818  16.5320  17.0287  17.0982
    17.2960  17.5200  17.9755  18.1767  18.2518  19.5455  19.7189  19.7417
    19.8537  20.1385  21.2219  22.1007  23.3615  25.7768

          k = 0.0000 0.1925-0.2722 (  3325 PWs)   bands (ev):

   -75.0063 -75.0019 -66.6464 -38.3528 -38.3440 -38.3436 -38.3321 -38.3317
   -38.3229 -32.7675 -32.7668 -32.7668  -2.2856  -2.2772  -2.2760  -2.2258
    -2.2230   8.4031  14.2755  15.3841  15.3958  16.6203  16.9149  16.9782
    17.1722  17.4810  18.1781  18.3129  18.6012  19.5907  19.7963  19.8738
    19.9436  21.4417  21.5541  23.0505  23.4611  25.8100

          k = 0.0000 0.3849-0.1361 (  3305 PWs)   bands (ev):

   -75.0057 -75.0025 -66.6463 -38.3445 -38.3442 -38.3442 -38.3313 -38.3313
   -38.3307 -32.7675 -32.7666 -32.7666  -2.2865  -2.2751  -2.2751  -2.2213
    -2.2213   8.8435  13.3411  15.4632  15.4632  16.8939  16.9207  16.9207
    17.3137  17.3137  18.0656  18.3604  18.3604  19.6235  19.6235  19.9162
    19.9162  20.4824  23.1685  23.2894  23.2894  24.1511

          k = 0.0000 0.3849 0.0680 (  3328 PWs)   bands (ev):

   -75.0060 -75.0022 -66.6464 -38.3511 -38.3507 -38.3404 -38.3352 -38.3252
   -38.3250 -32.7679 -32.7667 -32.7666  -2.2920  -2.2725  -2.2707  -2.2293
    -2.2181   8.7411  13.8549  15.3117  15.6994  16.6122  16.8380  16.8399
    17.3213  17.4541  18.0841  18.1707  18.5750  19.5884  19.6834  19.7406
    19.9794  20.8305  21.5165  21.6771  23.6680  25.3732

          k = 0.0000 0.3849 0.2722 (  3347 PWs)   bands (ev):

   -75.0057 -75.0025 -66.6465 -38.3541 -38.3541 -38.3489 -38.3270 -38.3225
   -38.3225 -32.7686 -32.7667 -32.7667  -2.3022  -2.2633  -2.2633  -2.2369
    -2.2125   9.2722  13.4748  15.9805  15.9805  16.1721  16.1732  17.0316
    17.3907  17.3908  17.9671  17.9672  18.5878  19.4325  19.5788  19.5910
    19.9828  20.4269  20.6222  20.6222  23.1976  24.1210

          k = 0.0000 0.3849-0.7485 (  3314 PWs)   bands (ev):

   -75.0050 -75.0031 -66.6464 -38.3545 -38.3526 -38.3525 -38.3235 -38.3235
   -38.3209 -32.7682 -32.7666 -32.7663  -2.3004  -2.2627  -2.2600  -2.2369
    -2.2100  10.1648  12.9962  14.6665  15.8556  15.9982  16.9171  17.0490
    17.3215  17.5985  17.8120  17.9009  18.5363  19.3979  19.4833  19.6392
    19.8715  19.9503  20.1815  20.2233  23.4102  24.9767

          k = 0.0000 0.3849-0.5443 (  3318 PWs)   bands (ev):

   -75.0041 -75.0041 -66.6464 -38.3560 -38.3472 -38.3467 -38.3291 -38.3289
   -38.3197 -32.7677 -32.7670 -32.7666  -2.2881  -2.2721  -2.2635  -2.2295
    -2.2142  10.3303  13.3482  13.5281  15.7323  16.0400  16.9950  17.3486
    17.3964  17.5810  17.9258  18.0150  18.2205  19.4306  19.5915  19.6845
    19.8495  20.0630  20.1246  20.6713  23.4412  27.6477

          k = 0.0000 0.3849-0.3402 (  3334 PWs)   bands (ev):

   -75.0050 -75.0031 -66.6464 -38.3524 -38.3395 -38.3390 -38.3369 -38.3367
   -38.3237 -32.7677 -32.7671 -32.7668  -2.2840  -2.2759  -2.2711  -2.2214
    -2.2199   9.5227  12.9669  14.8978  15.4818  16.5320  17.0287  17.0981
    17.2960  17.5200  17.9755  18.1767  18.2518  19.5455  19.7189  19.7417
    19.8537  20.1385  21.2219  22.1007  23.3615  25.7769

          k = 0.0000-0.5774 0.2041 (  3316 PWs)   bands (ev):

   -75.0041 -75.0041 -66.6464 -38.3386 -38.3386 -38.3382 -38.3374 -38.3374
   -38.3370 -32.7677 -32.7667 -32.7667  -2.2874  -2.2729  -2.2729  -2.2179
    -2.2179   9.8184  12.0218  15.4694  15.4694  16.8541  17.0210  17.0210
    17.3676  17.3676  17.9558  18.1776  18.1776  19.5597  19.5597  19.8219
    19.8751  19.8751  23.1407  23.4073  23.4073  23.6578

          k = 0.0000-0.5774 0.4082 (  3321 PWs)   bands (ev):

   -75.0046 -75.0035 -66.6464 -38.3478 -38.3463 -38.3460 -38.3298 -38.3297
   -38.3281 -32.7678 -32.7669 -32.7666  -2.2875  -2.2735  -2.2684  -2.2246
    -2.2156   9.8693  12.5237  14.9035  15.6284  16.4741  16.9720  17.0893
    17.3931  17.5228  18.0025  18.0171  18.3018  19.5491  19.5863  19.7430
    19.8440  19.8809  21.2672  21.5702  23.4377  25.7800

          k = 0.0000-0.5774 0.6124 (  3314 PWs)   bands (ev):

   -75.0050 -75.0031 -66.6464 -38.3545 -38.3526 -38.3525 -38.3235 -38.3235
   -38.3209 -32.7682 -32.7666 -32.7663  -2.3004  -2.2627  -2.2600  -2.2369
    -2.2100  10.1648  12.9962  14.6665  15.8556  15.9982  16.9171  17.0490
    17.3215  17.5985  17.8120  17.9009  18.5363  19.3979  19.4833  19.6391
    19.8715  19.9503  20.1815  20.2233  23.4102  24.9767

          k = 0.0000-0.5774-0.4082 (  3306 PWs)   bands (ev):

   -75.0051 -75.0030 -66.6464 -38.3566 -38.3549 -38.3549 -38.3213 -38.3213
   -38.3181 -32.7685 -32.7662 -32.7662  -2.3082  -2.2563  -2.2563  -2.2426
    -2.2068  10.4599  12.6119  15.4486  15.7892  16.2264  16.2264  17.2382
    17.2382  17.3336  17.9217  17.9217  18.6301  19.1105  19.4699  19.5810
    19.8316  19.8316  19.8791  20.0857  23.0958  24.0764

          k = 0.1667 0.2887-0.2041 (  3328 PWs)   bands (ev):

   -75.0060 -75.0022 -66.6464 -38.3511 -38.3507 -38.3404 -38.3352 -38.3252
   -38.3250 -32.7679 -32.7667 -32.7666  -2.2920  -2.2725  -2.2707  -2.2293
    -2.2181   8.7411  13.8549  15.3118  15.6994  16.6122  16.8380  16.8399
    17.3214  17.4540  18.0841  18.1706  18.5750  19.5884  19.6834  19.7406
    19.9794  20.8305  21.5165  21.6770  23.6681  25.3732

          k = 0.1667 0.2887-0.0000 (  3325 PWs)   bands (ev):

   -75.0063 -75.0019 -66.6464 -38.3528 -38.3440 -38.3436 -38.3321 -38.3317
   -38.3229 -32.7675 -32.7668 -32.7668  -2.2856  -2.2772  -2.2760  -2.2258
    -2.2230   8.4031  14.2755  15.3841  15.3958  16.6203  16.9149  16.9782
    17.1722  17.4810  18.1781  18.3130  18.6012  19.5907  19.7963  19.8738
    19.9436  21.4417  21.5541  23.0505  23.4612  25.7599

          k = 0.1667 0.2887-0.8165 (  3317 PWs)   bands (ev):

   -75.0052 -75.0030 -66.6464 -38.3547 -38.3481 -38.3455 -38.3305 -38.3272
   -38.3214 -32.7678 -32.7669 -32.7664  -2.2914  -2.2722  -2.2639  -2.2303
    -2.2145   9.6338  13.3625  14.7052  15.4402  16.4234  16.9636  17.0750
    17.2190  17.6732  17.8687  17.9885  18.4574  19.5520  19.5874  19.7094
    19.8855  20.3122  20.4829  20.7702  24.4610  25.4484

          k = 0.1667 0.2887-0.6124 (  3314 PWs)   bands (ev):

   -75.0041 -75.0041 -66.6464 -38.3543 -38.3527 -38.3382 -38.3378 -38.3222
   -38.3222 -32.7675 -32.7672 -32.7664  -2.2830  -2.2800  -2.2607  -2.2298
    -2.2139  10.3396  12.9713  14.1200  15.2944  16.3076  17.0799  17.0990
    17.4021  17.6877  17.9202  17.9368  18.3153  19.5206  19.5570  19.6566
    19.8248  19.8763  20.3629  20.4088  24.6363  25.5876

          k = 0.1667-0.6736 0.1361 (  3321 PWs)   bands (ev):

   -75.0046 -75.0035 -66.6464 -38.3478 -38.3463 -38.3460 -38.3298 -38.3297
   -38.3281 -32.7678 -32.7669 -32.7666  -2.2875  -2.2735  -2.2684  -2.2246
    -2.2156   9.8693  12.5237  14.9035  15.6284  16.4741  16.9720  17.0893
    17.3931  17.5227  18.0026  18.0171  18.3018  19.5491  19.5863  19.7430
    19.8440  19.8809  21.2672  21.5702  23.4377  25.7800

          k = 0.1667-0.6736 0.3402 (  3334 PWs)   bands (ev):

   -75.0050 -75.0031 -66.6464 -38.3524 -38.3395 -38.3390 -38.3369 -38.3367
   -38.3237 -32.7677 -32.7671 -32.7668  -2.2840  -2.2759  -2.2711  -2.2214
    -2.2199   9.5227  12.9669  14.8978  15.4818  16.5320  17.0287  17.0981
    17.2960  17.5200  17.9755  18.1767  18.2518  19.5455  19.7189  19.7417
    19.8537  20.1385  21.2219  22.1007  23.3615  25.7768

          k = 0.1667-0.6736 0.5443 (  3317 PWs)   bands (ev):

   -75.0052 -75.0030 -66.6464 -38.3547 -38.3481 -38.3455 -38.3305 -38.3272
   -38.3214 -32.7678 -32.7669 -32.7664  -2.2914  -2.2722  -2.2639  -2.2303
    -2.2145   9.6338  13.3625  14.7052  15.4402  16.4234  16.9636  17.0750
    17.2190  17.6732  17.8687  17.9886  18.4574  19.5520  19.5874  19.7093
    19.8855  20.3122  20.4829  20.7702  24.4610  25.4484

          k = 0.1667-0.6736-0.4763 (  3314 PWs)   bands (ev):

   -75.0050 -75.0031 -66.6464 -38.3545 -38.3526 -38.3525 -38.3235 -38.3235
   -38.3209 -32.7682 -32.7666 -32.7663  -2.3004  -2.2628  -2.2600  -2.2369
    -2.2100  10.1648  12.9962  14.6665  15.8556  15.9982  16.9171  17.0490
    17.3215  17.5985  17.8119  17.9009  18.5363  19.3979  19.4833  19.6392
    19.8715  19.9503  20.1815  20.2233  23.4102  24.9767

          k = 0.1667-0.6736-0.2722 (  3322 PWs)   bands (ev):

   -75.0046 -75.0035 -66.6464 -38.3569 -38.3550 -38.3466 -38.3298 -38.3207
   -38.3189 -32.7680 -32.7670 -32.7663  -2.2954  -2.2694  -2.2564  -2.2363
    -2.2104  10.5525  13.0829  14.3608  14.8287  16.4154  17.0582  17.0836
    17.3012  17.6874  17.7936  17.9013  18.4733  19.4471  19.5351  19.6461
    19.7824  19.8849  19.9295  19.9668  24.3683  25.2889

          k = 0.1667-0.6736-0.0680 (  3314 PWs)   bands (ev):

   -75.0041 -75.0041 -66.6464 -38.3543 -38.3527 -38.3382 -38.3378 -38.3222
   -38.3222 -32.7675 -32.7672 -32.7664  -2.2830  -2.2800  -2.2607  -2.2298
    -2.2139  10.3396  12.9713  14.1200  15.2944  16.3076  17.0799  17.0990
    17.4021  17.6877  17.9202  17.9368  18.3153  19.5206  19.5570  19.6566
    19.8248  19.8763  20.3629  20.4088  24.6363  25.5876

          k = 0.3333-0.5774 0.0000 (  3318 PWs)   bands (ev):

   -75.0041 -75.0041 -66.6464 -38.3560 -38.3472 -38.3467 -38.3291 -38.3289
   -38.3197 -32.7677 -32.7670 -32.7666  -2.2881  -2.2721  -2.2635  -2.2296
    -2.2142  10.3303  13.3482  13.5281  15.7323  16.0400  16.9949  17.3486
    17.3964  17.5810  17.9258  18.0150  18.2205  19.4306  19.5915  19.6845
    19.8495  20.0630  20.1247  20.6713  23.4412  27.6477

          k = 0.3333-0.5774 0.2041 (  3314 PWs)   bands (ev):

   -75.0041 -75.0041 -66.6464 -38.3543 -38.3527 -38.3382 -38.3378 -38.3222
   -38.3222 -32.7675 -32.7672 -32.7664  -2.2830  -2.2800  -2.2607  -2.2298
    -2.2139  10.3396  12.9713  14.1200  15.2944  16.3077  17.0799  17.0990
    17.4021  17.6877  17.9203  17.9368  18.3153  19.5206  19.5570  19.6566
    19.8248  19.8763  20.3629  20.4088  24.6363  25.5876

     the Fermi energy is    19.3445 ev

!    total energy              =   -1524.74903896 Ry
     total all-electron energy =    -20474.030050 Ry
     estimated scf accuracy    <          4.6E-09 Ry
     smearing contrib. (-TS)   =      -0.00898720 Ry
     internal energy E=F+TS    =   -1524.74005176 Ry

     The total energy is F=E-TS. E is the sum of the following terms:
     one-electron contribution =    -441.45368240 Ry
     hartree contribution      =     270.87130930 Ry
     xc contribution           =    -137.81629326 Ry
     ewald contribution        =    -677.45861314 Ry
     one-center paw contrib.   =    -538.88277226 Ry

     total magnetization       =     5.34 Bohr mag/cell
     absolute magnetization    =     5.62 Bohr mag/cell

     convergence has been achieved in  19 iterations

     negative rho (up, down):  0.000E+00 1.607E-04

     Forces acting on atoms (cartesian axes, Ry/au):

     atom    1 type  2   force =     0.00000000   -0.00000000   -0.00000000
     atom    2 type  3   force =     0.00000000    0.00000000    0.00000000
     atom    3 type  1   force =     0.00000000    0.00000000    0.00000306
     atom    4 type  1   force =     0.00000000    0.00000000   -0.00000306

     Total force =     0.000004     Total SCF correction =     0.000009
     SCF correction compared to forces is large: reduce conv_thr to get better values


     Computing stress (Cartesian axis) and pressure


     negative rho (up, down):  0.000E+00 1.607E-04
          total   stress  (Ry/bohr**3)                   (kbar)     P=      106.58
   0.00072451   0.00000000   0.00000000          106.58        0.00        0.00
   0.00000000   0.00072451  -0.00000000            0.00      106.58       -0.00
  -0.00000000  -0.00000000   0.00072449           -0.00       -0.00      106.58


     Writing all to output data dir ./outdir/Co2FeSn.save/
 
     init_run     :      1.01s CPU      1.07s WALL (       1 calls)
     electrons    :     49.52s CPU     50.91s WALL (       1 calls)
     forces       :      0.25s CPU      0.26s WALL (       1 calls)
     stress       :      0.53s CPU      0.54s WALL (       1 calls)

     Called by init_run:
     wfcinit      :      0.66s CPU      0.69s WALL (       1 calls)
     potinit      :      0.17s CPU      0.18s WALL (       1 calls)
     hinit0       :      0.11s CPU      0.12s WALL (       1 calls)

     Called by electrons:
     c_bands      :     39.19s CPU     40.26s WALL (      19 calls)
     sum_band     :      6.50s CPU      6.75s WALL (      19 calls)
     v_of_rho     :      0.28s CPU      0.29s WALL (      20 calls)
     newd         :      0.79s CPU      0.80s WALL (      20 calls)
     PAW_pot      :      2.87s CPU      2.90s WALL (      20 calls)
     mix_rho      :      0.04s CPU      0.04s WALL (      19 calls)

     Called by c_bands:
     init_us_2    :      0.27s CPU      0.28s WALL (    2624 calls)
     init_us_2:cp :      0.26s CPU      0.27s WALL (    2624 calls)
     cegterg      :     38.07s CPU     39.06s WALL (    1216 calls)

     Called by *egterg:
     cdiaghg      :      9.67s CPU      9.76s WALL (    5721 calls)
     h_psi        :     24.37s CPU     25.23s WALL (    5785 calls)
     s_psi        :      0.77s CPU      0.80s WALL (    5785 calls)
     g_psi        :      0.09s CPU      0.09s WALL (    4505 calls)

     Called by h_psi:
     h_psi:calbec :      1.09s CPU      1.13s WALL (    5785 calls)
     vloc_psi     :     22.37s CPU     23.17s WALL (    5785 calls)
     add_vuspsi   :      0.79s CPU      0.82s WALL (    5785 calls)

     General routines
     calbec       :      1.51s CPU      1.57s WALL (    7321 calls)
     fft          :      0.12s CPU      0.13s WALL (     538 calls)
     ffts         :      0.01s CPU      0.01s WALL (      78 calls)
     fftw         :     24.74s CPU     25.69s WALL (  282442 calls)
     interpolate  :      0.02s CPU      0.02s WALL (      40 calls)
 
     Parallel routines
 
     PWSCF        :     52.24s CPU     54.09s WALL

 
   This run was terminated on:  23:26: 0   8Oct2025            

=------------------------------------------------------------------------------=
   JOB DONE.
=------------------------------------------------------------------------------=
