
     Program PWSCF v.7.1 starts on  8Oct2025 at 23:26:58 

     This program is part of the open-source Quantum ESPRESSO suite
     for quantum simulation of materials; please cite
         "P. Giannozzi et al., J. Phys.:Condens. Matter 21 395502 (2009);
         "P. Giannozzi et al., J. Phys.:Condens. Matter 29 465901 (2017);
         "P. Giannozzi et al., J. Chem. Phys. 152 154105 (2020);
          URL http://www.quantum-espresso.org", 
     in publications or presentations arising from this work. More details at
     http://www.quantum-espresso.org/quote

     Parallel version (MPI), running on    20 processors

     MPI processes distributed on     1 nodes
     60641 MiB available memory on the printing compute node when the environment starts
 
     Reading input from Co2FeSn_80.in

     Current dimensions of program PWSCF are:
     Max number of different atomic species (ntypx) = 10
     Max number of k-points (npk) =  40000
     Max angular momentum in pseudopotentials (lmaxx) =  4
     file Co.pbe-spn-kjpaw_psl.0.3.1.UPF: wavefunction(s)  3P 3D renormalized
     file Fe.pbe-spn-kjpaw_psl.1.0.0.UPF: wavefunction(s)  3P 3D renormalized
     file Sn.pbe-dn-kjpaw_psl.1.0.0.UPF: wavefunction(s)  5S 5P 4D renormalized
 
     R & G space division:  proc/nbgrp/npool/nimage =      20
     Subspace diagonalization in iterative solution of the eigenvalue problem:
     a serial algorithm will be used

 
     Parallelization info
     --------------------
     sticks:   dense  smooth     PW     G-vecs:    dense   smooth      PW
     Min         134      67     18                 4593     1631     248
     Max         135      68     19                 4595     1635     253
     Sum        2689    1345    379                91881    32647    5029
 
     Using Slab Decomposition
 


     bravais-lattice index     =           14
     lattice parameter (alat)  =       7.8036  a.u.
     unit-cell volume          =     336.0264 (a.u.)^3
     number of atoms/cell      =            4
     number of atomic types    =            3
     number of electrons       =        64.00
     number of Kohn-Sham states=           38
     kinetic-energy cutoff     =      80.0000  Ry
     charge density cutoff     =     640.0000  Ry
     scf convergence threshold =      1.0E-08
     mixing beta               =       0.2000
     number of iterations used =            8  plain     mixing
     Exchange-correlation= SLA  PW   PBX  PBC
                           (   1   4   3   4   0   0   0)

     celldm(1)=   7.803620  celldm(2)=   1.000000  celldm(3)=   1.000000
     celldm(4)=   0.500000  celldm(5)=   0.500000  celldm(6)=   0.500000

     crystal axes: (cart. coord. in units of alat)
               a(1) = (   1.000000   0.000000   0.000000 )  
               a(2) = (   0.500000   0.866025   0.000000 )  
               a(3) = (   0.500000   0.288675   0.816497 )  

     reciprocal axes: (cart. coord. in units 2 pi/alat)
               b(1) = (  1.000000 -0.577350 -0.408248 )  
               b(2) = (  0.000000  1.154701 -0.408248 )  
               b(3) = (  0.000000  0.000000  1.224745 )  


     PseudoPot. # 1 for Co read from file:
     <HPC_PATH>
     MD5 check sum: 3c0a43779828c046024e4f3be63f8e67
     Pseudo is Projector augmented-wave + core cor, Zval = 17.0
     Generated using &quot;atomic&quot; code by A. Dal Corso  v.6.2.2
     Shape of augmentation charge: PSQ
     Using radial grid of 1193 points,  6 beta functions with: 
                l(1) =   0
                l(2) =   0
                l(3) =   1
                l(4) =   1
                l(5) =   2
                l(6) =   2
     Q(r) pseudized with 0 coefficients 


     PseudoPot. # 2 for Fe read from file:
     <HPC_PATH>
     MD5 check sum: fc81f059e5c5069939230b1155715ae8
     Pseudo is Projector augmented-wave + core cor, Zval = 16.0
     Generated using &quot;atomic&quot; code by A. Dal Corso  v.6.3
     Shape of augmentation charge: PSQ
     Using radial grid of 1191 points,  6 beta functions with: 
                l(1) =   0
                l(2) =   0
                l(3) =   1
                l(4) =   1
                l(5) =   2
                l(6) =   2
     Q(r) pseudized with 0 coefficients 


     PseudoPot. # 3 for Sn read from file:
     <HPC_PATH>
     MD5 check sum: 67f11dec737d427557dc41ea34975807
     Pseudo is Projector augmented-wave + core cor, Zval = 14.0
     Generated using &quot;atomic&quot; code by A. Dal Corso  v.6.3
     Shape of augmentation charge: PSQ
     Using radial grid of 1243 points,  6 beta functions with: 
                l(1) =   0
                l(2) =   0
                l(3) =   1
                l(4) =   1
                l(5) =   2
                l(6) =   2
     Q(r) pseudized with 0 coefficients 


     atomic species   valence    mass     pseudopotential
        Co            17.00    58.93300     Co( 1.00)
        Fe            16.00    55.84500     Fe( 1.00)
        Sn            14.00   118.71000     Sn( 1.00)

     Starting magnetic structure 
     atomic species   magnetization
        Co           0.500
        Fe           0.500
        Sn           0.000

     12 Sym. Ops., with inversion, found



   Cartesian axes

     site n.     atom                  positions (alat units)
         1           Fe  tau(   1) = (   1.0000000   0.5773503   0.4082483  )
         2           Sn  tau(   2) = (   0.0000000   0.0000000   0.0000000  )
         3           Co  tau(   3) = (   0.5000000   0.2886751   0.2041241  )
         4           Co  tau(   4) = (   1.5000000   0.8660254   0.6123724  )

     number of k points=    32  Gaussian smearing, width (Ry)=  0.0200
                       cart. coord. in units 2pi/alat
        k(    1) = (   0.0000000   0.0000000   0.0000000), wk =   0.0046296
        k(    2) = (   0.0000000   0.0000000   0.2041241), wk =   0.0092593
        k(    3) = (   0.0000000   0.0000000   0.4082483), wk =   0.0092593
        k(    4) = (   0.0000000   0.0000000  -0.6123724), wk =   0.0046296
        k(    5) = (   0.0000000   0.1924501  -0.0680414), wk =   0.0277778
        k(    6) = (   0.0000000   0.1924501   0.1360828), wk =   0.0277778
        k(    7) = (   0.0000000   0.1924501   0.3402069), wk =   0.0277778
        k(    8) = (   0.0000000   0.1924501  -0.6804138), wk =   0.0277778
        k(    9) = (   0.0000000   0.1924501  -0.4762897), wk =   0.0277778
        k(   10) = (   0.0000000   0.1924501  -0.2721655), wk =   0.0277778
        k(   11) = (   0.0000000   0.3849002  -0.1360828), wk =   0.0277778
        k(   12) = (   0.0000000   0.3849002   0.0680414), wk =   0.0277778
        k(   13) = (   0.0000000   0.3849002   0.2721655), wk =   0.0277778
        k(   14) = (   0.0000000   0.3849002  -0.7484552), wk =   0.0277778
        k(   15) = (   0.0000000   0.3849002  -0.5443311), wk =   0.0277778
        k(   16) = (   0.0000000   0.3849002  -0.3402069), wk =   0.0277778
        k(   17) = (   0.0000000  -0.5773503   0.2041241), wk =   0.0138889
        k(   18) = (   0.0000000  -0.5773503   0.4082483), wk =   0.0277778
        k(   19) = (   0.0000000  -0.5773503   0.6123724), wk =   0.0277778
        k(   20) = (   0.0000000  -0.5773503  -0.4082483), wk =   0.0138889
        k(   21) = (   0.1666667   0.2886751  -0.2041241), wk =   0.0555556
        k(   22) = (   0.1666667   0.2886751  -0.0000000), wk =   0.0277778
        k(   23) = (   0.1666667   0.2886751  -0.8164966), wk =   0.0555556
        k(   24) = (   0.1666667   0.2886751  -0.6123724), wk =   0.0277778
        k(   25) = (   0.1666667  -0.6735753   0.1360828), wk =   0.0555556
        k(   26) = (   0.1666667  -0.6735753   0.3402069), wk =   0.0555556
        k(   27) = (   0.1666667  -0.6735753   0.5443311), wk =   0.0555556
        k(   28) = (   0.1666667  -0.6735753  -0.4762897), wk =   0.0555556
        k(   29) = (   0.1666667  -0.6735753  -0.2721655), wk =   0.0555556
        k(   30) = (   0.1666667  -0.6735753  -0.0680414), wk =   0.0555556
        k(   31) = (   0.3333333  -0.5773503   0.0000000), wk =   0.0277778
        k(   32) = (   0.3333333  -0.5773503   0.2041241), wk =   0.0277778

     Dense  grid:    91881 G-vectors     FFT dimensions: (  64,  64,  64)

     Smooth grid:    32647 G-vectors     FFT dimensions: (  45,  45,  45)

     Estimated max dynamical RAM per process >      33.48 MB

     Estimated total dynamical RAM >     669.53 MB

     Check: negative core charge=   -0.000016
     Generating pointlists ...
     new r_m :   0.2526 (alat units)  1.9712 (a.u.) for type    1
     new r_m :   0.2526 (alat units)  1.9712 (a.u.) for type    2
     new r_m :   0.2526 (alat units)  1.9712 (a.u.) for type    3

     Initial potential from superposition of free atoms

     starting charge      63.9976, renormalised to      64.0000
     Starting wfcs are   39 randomized atomic wfcs
     Checking if some PAW data can be deallocated... 

     total cpu time spent up to now is        1.5 secs

     per-process dynamical memory:    83.0 Mb

     Self-consistent Calculation

     iteration #  1     ecut=    80.00 Ry     beta= 0.20
     Davidson diagonalization with overlap
     ethr =  1.00E-02,  avg # of iterations =  4.1

     total cpu time spent up to now is        4.4 secs

     total energy              =   -1523.37408971 Ry
     estimated scf accuracy    <       2.79951315 Ry

     total magnetization       =     8.02 Bohr mag/cell
     absolute magnetization    =     8.62 Bohr mag/cell

     iteration #  2     ecut=    80.00 Ry     beta= 0.20
     Davidson diagonalization with overlap
     ethr =  4.37E-03,  avg # of iterations =  1.7

     negative rho (up, down):  0.000E+00 9.929E-05

     total cpu time spent up to now is        6.6 secs

     total energy              =   -1524.33197877 Ry
     estimated scf accuracy    <       1.98710216 Ry

     total magnetization       =     7.47 Bohr mag/cell
     absolute magnetization    =     8.32 Bohr mag/cell

     iteration #  3     ecut=    80.00 Ry     beta= 0.20
     Davidson diagonalization with overlap
     ethr =  3.10E-03,  avg # of iterations =  1.6

     negative rho (up, down):  0.000E+00 2.165E-04

     total cpu time spent up to now is        8.8 secs

     total energy              =   -1524.52140072 Ry
     estimated scf accuracy    <       2.37512930 Ry

     total magnetization       =     6.76 Bohr mag/cell
     absolute magnetization    =     7.59 Bohr mag/cell

     iteration #  4     ecut=    80.00 Ry     beta= 0.20
     Davidson diagonalization with overlap
     ethr =  3.10E-03,  avg # of iterations =  1.0

     negative rho (up, down):  0.000E+00 2.133E-04

     total cpu time spent up to now is       10.9 secs

     total energy              =   -1524.73791379 Ry
     estimated scf accuracy    <       0.10244524 Ry

     total magnetization       =     5.51 Bohr mag/cell
     absolute magnetization    =     6.39 Bohr mag/cell

     iteration #  5     ecut=    80.00 Ry     beta= 0.20
     Davidson diagonalization with overlap
     ethr =  1.60E-04,  avg # of iterations =  4.8

     negative rho (up, down):  0.000E+00 2.035E-04

     total cpu time spent up to now is       13.9 secs

     total energy              =   -1524.75014138 Ry
     estimated scf accuracy    <       0.04744567 Ry

     total magnetization       =     5.49 Bohr mag/cell
     absolute magnetization    =     6.13 Bohr mag/cell

     iteration #  6     ecut=    80.00 Ry     beta= 0.20
     Davidson diagonalization with overlap
     ethr =  7.41E-05,  avg # of iterations =  3.6

     negative rho (up, down):  0.000E+00 1.720E-04

     total cpu time spent up to now is       16.6 secs

     total energy              =   -1524.75985687 Ry
     estimated scf accuracy    <       0.00858736 Ry

     total magnetization       =     5.28 Bohr mag/cell
     absolute magnetization    =     5.80 Bohr mag/cell

     iteration #  7     ecut=    80.00 Ry     beta= 0.20
     Davidson diagonalization with overlap
     c_bands:  1 eigenvalues not converged
     ethr =  1.34E-05,  avg # of iterations =  6.2

     negative rho (up, down):  0.000E+00 1.540E-04

     total cpu time spent up to now is       20.1 secs

     total energy              =   -1524.76444724 Ry
     estimated scf accuracy    <       0.03875746 Ry

     total magnetization       =     5.44 Bohr mag/cell
     absolute magnetization    =     5.87 Bohr mag/cell

     iteration #  8     ecut=    80.00 Ry     beta= 0.20
     Davidson diagonalization with overlap
     ethr =  1.34E-05,  avg # of iterations =  1.9

     negative rho (up, down):  0.000E+00 1.451E-04

     total cpu time spent up to now is       22.4 secs

     total energy              =   -1524.76559418 Ry
     estimated scf accuracy    <       0.00638809 Ry

     total magnetization       =     5.34 Bohr mag/cell
     absolute magnetization    =     5.73 Bohr mag/cell

     iteration #  9     ecut=    80.00 Ry     beta= 0.20
     Davidson diagonalization with overlap
     ethr =  9.98E-06,  avg # of iterations =  2.4

     negative rho (up, down):  0.000E+00 1.377E-04

     total cpu time spent up to now is       24.7 secs

     total energy              =   -1524.76621077 Ry
     estimated scf accuracy    <       0.00212106 Ry

     total magnetization       =     5.37 Bohr mag/cell
     absolute magnetization    =     5.71 Bohr mag/cell

     iteration # 10     ecut=    80.00 Ry     beta= 0.20
     Davidson diagonalization with overlap
     ethr =  3.31E-06,  avg # of iterations =  3.9

     negative rho (up, down):  0.000E+00 1.387E-04

     total cpu time spent up to now is       27.4 secs

     total energy              =   -1524.76648564 Ry
     estimated scf accuracy    <       0.00045970 Ry

     total magnetization       =     5.37 Bohr mag/cell
     absolute magnetization    =     5.69 Bohr mag/cell

     iteration # 11     ecut=    80.00 Ry     beta= 0.20
     Davidson diagonalization with overlap
     ethr =  7.18E-07,  avg # of iterations =  3.9

     negative rho (up, down):  0.000E+00 1.372E-04

     total cpu time spent up to now is       30.2 secs

     total energy              =   -1524.76661952 Ry
     estimated scf accuracy    <       0.00136106 Ry

     total magnetization       =     5.38 Bohr mag/cell
     absolute magnetization    =     5.70 Bohr mag/cell

     iteration # 12     ecut=    80.00 Ry     beta= 0.20
     Davidson diagonalization with overlap
     ethr =  7.18E-07,  avg # of iterations =  2.2

     negative rho (up, down):  0.000E+00 1.355E-04

     total cpu time spent up to now is       32.5 secs

     total energy              =   -1524.76673334 Ry
     estimated scf accuracy    <       0.00021257 Ry

     total magnetization       =     5.34 Bohr mag/cell
     absolute magnetization    =     5.65 Bohr mag/cell

     iteration # 13     ecut=    80.00 Ry     beta= 0.20
     Davidson diagonalization with overlap
     ethr =  3.32E-07,  avg # of iterations =  3.4

     negative rho (up, down):  0.000E+00 1.364E-04

     total cpu time spent up to now is       35.2 secs

     total energy              =   -1524.76677116 Ry
     estimated scf accuracy    <       0.00003216 Ry

     total magnetization       =     5.34 Bohr mag/cell
     absolute magnetization    =     5.63 Bohr mag/cell

     iteration # 14     ecut=    80.00 Ry     beta= 0.20
     Davidson diagonalization with overlap
     ethr =  5.03E-08,  avg # of iterations =  6.2

     negative rho (up, down):  0.000E+00 1.380E-04

     total cpu time spent up to now is       38.8 secs

     total energy              =   -1524.76678764 Ry
     estimated scf accuracy    <       0.00001000 Ry

     total magnetization       =     5.34 Bohr mag/cell
     absolute magnetization    =     5.62 Bohr mag/cell

     iteration # 15     ecut=    80.00 Ry     beta= 0.20
     Davidson diagonalization with overlap
     ethr =  1.56E-08,  avg # of iterations =  4.1

     negative rho (up, down):  0.000E+00 1.391E-04

     total cpu time spent up to now is       41.4 secs

     total energy              =   -1524.76678946 Ry
     estimated scf accuracy    <       0.00000117 Ry

     total magnetization       =     5.34 Bohr mag/cell
     absolute magnetization    =     5.62 Bohr mag/cell

     iteration # 16     ecut=    80.00 Ry     beta= 0.20
     Davidson diagonalization with overlap
     ethr =  1.84E-09,  avg # of iterations =  6.4

     negative rho (up, down):  0.000E+00 1.391E-04

     total cpu time spent up to now is       44.9 secs

     total energy              =   -1524.76679015 Ry
     estimated scf accuracy    <       0.00000019 Ry

     total magnetization       =     5.34 Bohr mag/cell
     absolute magnetization    =     5.62 Bohr mag/cell

     iteration # 17     ecut=    80.00 Ry     beta= 0.20
     Davidson diagonalization with overlap
     ethr =  2.92E-10,  avg # of iterations =  4.4

     negative rho (up, down):  0.000E+00 1.391E-04

     total cpu time spent up to now is       47.7 secs

     total energy              =   -1524.76679018 Ry
     estimated scf accuracy    <       0.00000012 Ry

     total magnetization       =     5.34 Bohr mag/cell
     absolute magnetization    =     5.62 Bohr mag/cell

     iteration # 18     ecut=    80.00 Ry     beta= 0.20
     Davidson diagonalization with overlap
     ethr =  1.84E-10,  avg # of iterations =  3.5

     negative rho (up, down):  0.000E+00 1.392E-04

     total cpu time spent up to now is       50.4 secs

     total energy              =   -1524.76679023 Ry
     estimated scf accuracy    <       0.00000004 Ry

     total magnetization       =     5.34 Bohr mag/cell
     absolute magnetization    =     5.62 Bohr mag/cell

     iteration # 19     ecut=    80.00 Ry     beta= 0.20
     Davidson diagonalization with overlap
     ethr =  5.58E-11,  avg # of iterations =  3.5

     negative rho (up, down):  0.000E+00 1.391E-04

     total cpu time spent up to now is       53.2 secs

     total energy              =   -1524.76679025 Ry
     estimated scf accuracy    <       0.00000004 Ry

     total magnetization       =     5.34 Bohr mag/cell
     absolute magnetization    =     5.62 Bohr mag/cell

     iteration # 20     ecut=    80.00 Ry     beta= 0.20
     Davidson diagonalization with overlap
     ethr =  5.58E-11,  avg # of iterations =  1.9

     negative rho (up, down):  0.000E+00 1.391E-04
 
     Magnetic moment per site  (integrated on atomic sphere of radius R)
     atom   1 (R=0.253)  charge= 14.4758  magn=  2.8203
     atom   2 (R=0.253)  charge= 11.1694  magn= -0.0082
     atom   3 (R=0.253)  charge= 15.7988  magn=  1.2969
     atom   4 (R=0.253)  charge= 15.7988  magn=  1.2969

     total cpu time spent up to now is       55.5 secs

     End of self-consistent calculation

 ------ SPIN UP ------------


          k = 0.0000 0.0000 0.0000 (  4015 PWs)   bands (ev):

   -76.5360 -76.5299 -69.8883 -39.8440 -39.8440 -39.8440 -39.8198 -39.8198
   -39.8198 -35.9338 -35.9338 -35.9338  -2.2806  -2.2806  -2.2806  -2.2210
    -2.2210   7.3708  14.7413  14.7413  14.9330  14.9330  14.9330  15.6492
    15.6492  15.6492  17.2175  17.2175  17.7753  17.7753  17.8419  17.8419
    17.8419  22.9783  23.2616  23.2616  23.2616  24.2621

          k = 0.0000 0.0000 0.2041 (  4047 PWs)   bands (ev):

   -76.5356 -76.5303 -69.8883 -39.8430 -39.8425 -39.8425 -39.8217 -39.8217
   -39.8214 -35.9343 -35.9338 -35.9338  -2.2813  -2.2773  -2.2773  -2.2184
    -2.2184   7.7434  14.4889  14.4889  14.5054  15.3570  15.3570  15.5654
    15.6335  15.6335  17.1848  17.1848  17.4850  17.5542  17.5542  17.8810
    17.8810  20.8513  22.6828  22.6828  23.1152  24.4263

          k = 0.0000 0.0000 0.4082 (  4068 PWs)   bands (ev):

   -76.5344 -76.5314 -69.8883 -39.8392 -39.8384 -39.8384 -39.8262 -39.8262
   -39.8258 -35.9349 -35.9337 -35.9337  -2.2830  -2.2717  -2.2717  -2.2122
    -2.2122   8.7819  13.0911  14.3528  14.3528  15.4674  15.4934  15.4934
    16.0130  16.0130  17.0702  17.0702  17.1434  17.3074  17.3074  17.7550
    17.7550  18.8913  22.2826  22.2826  22.8668  23.5727

          k = 0.0000 0.0000-0.6124 (  4092 PWs)   bands (ev):

   -76.5329 -76.5329 -69.8884 -39.8333 -39.8333 -39.8332 -39.8319 -39.8318
   -39.8318 -35.9351 -35.9338 -35.9338  -2.2839  -2.2693  -2.2693  -2.2086
    -2.2086   9.7744  11.8193  14.3236  14.3236  15.4804  15.4804  15.5193
    16.2885  16.2885  16.9839  16.9839  17.1593  17.2495  17.2495  17.6159
    17.6159  18.0155  22.2713  22.2713  22.8150  23.0477

          k = 0.0000 0.1925-0.0680 (  4047 PWs)   bands (ev):

   -76.5356 -76.5303 -69.8883 -39.8430 -39.8425 -39.8425 -39.8217 -39.8217
   -39.8213 -35.9343 -35.9339 -35.9338  -2.2813  -2.2773  -2.2773  -2.2184
    -2.2184   7.7434  14.4889  14.4889  14.5054  15.3570  15.3570  15.5654
    15.6335  15.6335  17.1848  17.1849  17.4850  17.5542  17.5542  17.8810
    17.8810  20.8513  22.6828  22.6829  23.1153  24.4263

          k = 0.0000 0.1925 0.1361 (  4056 PWs)   bands (ev):

   -76.5355 -76.5304 -69.8883 -39.8453 -39.8453 -39.8368 -39.8274 -39.8192
   -39.8192 -35.9345 -35.9338 -35.9338  -2.2865  -2.2736  -2.2736  -2.2212
    -2.2151   7.8648  13.9077  14.9017  15.1045  15.1045  15.3196  15.3995
    15.6902  15.6902  17.0539  17.2604  17.4512  17.5084  17.5085  17.7670
    17.9255  21.3582  21.3698  21.3698  23.4248  23.4980

          k = 0.0000 0.1925 0.3402 (  4051 PWs)   bands (ev):

   -76.5347 -76.5312 -69.8883 -39.8446 -39.8445 -39.8345 -39.8298 -39.8202
   -39.8201 -35.9349 -35.9337 -35.9336  -2.2884  -2.2691  -2.2674  -2.2200
    -2.2091   8.6741  13.3314  14.5426  14.7551  15.2848  15.4721  15.6266
    15.8164  15.9073  16.8876  17.0837  17.2330  17.2461  17.3232  17.7159
    17.8951  19.3867  20.5320  20.5396  22.8878  24.6642

          k = 0.0000 0.1925-0.6804 (  4050 PWs)   bands (ev):

   -76.5334 -76.5324 -69.8884 -39.8415 -39.8404 -39.8399 -39.8248 -39.8243
   -39.8231 -35.9349 -35.9338 -35.9335  -2.2840  -2.2701  -2.2649  -2.2153
    -2.2063   9.8013  12.2985  14.0495  14.5469  15.3363  15.4761  15.5889
    16.2561  16.3326  16.8071  16.8183  17.0870  17.1670  17.3616  17.6939
    17.7045  18.1234  19.9827  20.4051  22.7209  25.3048

          k = 0.0000 0.1925-0.4763 (  4063 PWs)   bands (ev):

   -76.5338 -76.5320 -69.8884 -39.8458 -39.8341 -39.8334 -39.8316 -39.8305
   -39.8190 -35.9348 -35.9339 -35.9336  -2.2804  -2.2723  -2.2677  -2.2122
    -2.2104   9.4571  12.6980  14.1962  14.3458  15.2841  15.4429  15.6522
    16.1681  16.2707  16.7557  16.9064  17.0318  17.2234  17.2382  17.6934
    17.9408  18.4613  19.8728  21.0571  22.8088  25.2280

          k = 0.0000 0.1925-0.2722 (  4039 PWs)   bands (ev):

   -76.5349 -76.5309 -69.8883 -39.8461 -39.8382 -39.8372 -39.8269 -39.8263
   -39.8183 -35.9345 -35.9337 -35.9337  -2.2822  -2.2739  -2.2725  -2.2165
    -2.2140   8.3378  13.7709  14.2817  14.8933  15.1452  15.5104  15.5129
    15.7717  15.8247  16.9912  17.2353  17.2412  17.2691  17.3440  17.7070
    18.0196  20.1574  20.2255  22.2958  23.1720  25.1641

          k = 0.0000 0.3849-0.1361 (  4068 PWs)   bands (ev):

   -76.5344 -76.5314 -69.8883 -39.8392 -39.8384 -39.8384 -39.8262 -39.8262
   -39.8258 -35.9349 -35.9337 -35.9337  -2.2830  -2.2717  -2.2717  -2.2122
    -2.2122   8.7819  13.0911  14.3528  14.3528  15.4674  15.4934  15.4934
    16.0130  16.0130  17.0702  17.0703  17.1434  17.3074  17.3074  17.7550
    17.7550  18.8913  22.2826  22.2826  22.8668  23.5727

          k = 0.0000 0.3849 0.0680 (  4051 PWs)   bands (ev):

   -76.5347 -76.5312 -69.8883 -39.8446 -39.8445 -39.8345 -39.8298 -39.8202
   -39.8201 -35.9349 -35.9337 -35.9336  -2.2884  -2.2691  -2.2674  -2.2200
    -2.2091   8.6741  13.3314  14.5426  14.7551  15.2848  15.4721  15.6266
    15.8164  15.9073  16.8876  17.0837  17.2330  17.2461  17.3232  17.7159
    17.8952  19.3867  20.5320  20.5396  22.8878  24.6641

          k = 0.0000 0.3849 0.2722 (  4056 PWs)   bands (ev):

   -76.5344 -76.5314 -69.8884 -39.8474 -39.8474 -39.8424 -39.8218 -39.8176
   -39.8176 -35.9355 -35.9334 -35.9334  -2.2987  -2.2599  -2.2599  -2.2274
    -2.2034   9.1915  12.9170  14.8318  15.3455  15.3927  15.4972  15.4972
    15.8656  15.8656  16.6033  17.0404  17.0404  17.1679  17.3066  17.7508
    17.7713  18.9574  19.2566  19.2566  22.3791  23.0259

          k = 0.0000 0.3849-0.7485 (  4072 PWs)   bands (ev):

   -76.5338 -76.5320 -69.8884 -39.8481 -39.8464 -39.8461 -39.8190 -39.8189
   -39.8166 -35.9355 -35.9336 -35.9334  -2.2970  -2.2595  -2.2568  -2.2276
    -2.2007  10.0447  12.6714  14.1261  15.0292  15.1728  15.5378  15.7537
    15.9666  16.1711  16.6898  16.8869  16.9601  17.0618  17.4112  17.6384
    17.8222  18.2107  18.4517  18.7359  22.5255  24.1181

          k = 0.0000 0.3849-0.5443 (  4087 PWs)   bands (ev):

   -76.5329 -76.5329 -69.8884 -39.8495 -39.8413 -39.8408 -39.8245 -39.8238
   -39.8155 -35.9349 -35.9342 -35.9335  -2.2846  -2.2687  -2.2602  -2.2203
    -2.2047  10.2192  13.0241  13.2414  14.6914  15.0291  15.4291  15.9099
    16.0717  16.5003  16.6272  16.7135  16.9446  17.0906  17.2301  17.9210
    18.0153  18.0587  18.4734  19.3491  22.6004  27.0617

          k = 0.0000 0.3849-0.3402 (  4063 PWs)   bands (ev):

   -76.5338 -76.5320 -69.8884 -39.8458 -39.8341 -39.8334 -39.8316 -39.8305
   -39.8190 -35.9348 -35.9339 -35.9336  -2.2804  -2.2723  -2.2677  -2.2122
    -2.2104   9.4571  12.6980  14.1962  14.3458  15.2841  15.4429  15.6522
    16.1681  16.2707  16.7557  16.9064  17.0318  17.2234  17.2382  17.6934
    17.9408  18.4613  19.8728  21.0570  22.8088  25.2284

          k = 0.0000-0.5774 0.2041 (  4092 PWs)   bands (ev):

   -76.5329 -76.5329 -69.8884 -39.8333 -39.8333 -39.8332 -39.8319 -39.8318
   -39.8318 -35.9351 -35.9338 -35.9338  -2.2839  -2.2693  -2.2693  -2.2086
    -2.2086   9.7744  11.8193  14.3236  14.3236  15.4804  15.4804  15.5193
    16.2885  16.2885  16.9839  16.9840  17.1593  17.2495  17.2495  17.6159
    17.6159  18.0155  22.2713  22.2713  22.8150  23.0477

          k = 0.0000-0.5774 0.4082 (  4050 PWs)   bands (ev):

   -76.5334 -76.5324 -69.8884 -39.8415 -39.8404 -39.8399 -39.8248 -39.8243
   -39.8231 -35.9349 -35.9338 -35.9335  -2.2840  -2.2701  -2.2649  -2.2153
    -2.2063   9.8013  12.2985  14.0495  14.5469  15.3363  15.4761  15.5889
    16.2561  16.3326  16.8071  16.8183  17.0870  17.1670  17.3616  17.6939
    17.7045  18.1234  19.9827  20.4051  22.7209  25.3048

          k = 0.0000-0.5774 0.6124 (  4072 PWs)   bands (ev):

   -76.5338 -76.5320 -69.8884 -39.8481 -39.8464 -39.8461 -39.8190 -39.8189
   -39.8166 -35.9355 -35.9336 -35.9334  -2.2970  -2.2595  -2.2568  -2.2276
    -2.2007  10.0447  12.6714  14.1261  15.0292  15.1728  15.5378  15.7537
    15.9666  16.1711  16.6898  16.8869  16.9600  17.0618  17.4112  17.6384
    17.8222  18.2107  18.4517  18.7359  22.5255  24.1181

          k = 0.0000-0.5774-0.4082 (  4088 PWs)   bands (ev):

   -76.5339 -76.5319 -69.8884 -39.8502 -39.8486 -39.8486 -39.8169 -39.8169
   -39.8145 -35.9361 -35.9333 -35.9333  -2.3049  -2.2532  -2.2532  -2.2333
    -2.1975  10.2869  12.4142  14.5424  14.8659  15.6756  15.6756  15.8916
    16.0368  16.0368  16.0532  16.9588  17.1512  17.1512  17.3648  17.6133
    17.7425  18.0589  18.0589  18.1873  22.2393  22.9207

          k = 0.1667 0.2887-0.2041 (  4051 PWs)   bands (ev):

   -76.5347 -76.5312 -69.8883 -39.8446 -39.8445 -39.8345 -39.8298 -39.8202
   -39.8201 -35.9349 -35.9337 -35.9336  -2.2884  -2.2691  -2.2674  -2.2200
    -2.2091   8.6741  13.3314  14.5426  14.7551  15.2848  15.4721  15.6266
    15.8164  15.9073  16.8876  17.0837  17.2330  17.2461  17.3232  17.7159
    17.8952  19.3867  20.5320  20.5396  22.8878  24.6642

          k = 0.1667 0.2887-0.0000 (  4039 PWs)   bands (ev):

   -76.5349 -76.5309 -69.8883 -39.8461 -39.8382 -39.8372 -39.8270 -39.8263
   -39.8183 -35.9345 -35.9337 -35.9337  -2.2822  -2.2739  -2.2725  -2.2165
    -2.2140   8.3378  13.7709  14.2817  14.8933  15.1452  15.5104  15.5129
    15.7717  15.8247  16.9913  17.2353  17.2412  17.2691  17.3440  17.7070
    18.0196  20.1574  20.2255  22.2958  23.1720  25.1632

          k = 0.1667 0.2887-0.8165 (  4056 PWs)   bands (ev):

   -76.5339 -76.5319 -69.8884 -39.8481 -39.8419 -39.8396 -39.8253 -39.8225
   -39.8169 -35.9350 -35.9339 -35.9334  -2.2879  -2.2687  -2.2607  -2.2210
    -2.2053   9.5533  12.9331  14.2011  14.5815  15.2103  15.5731  15.7711
    15.8572  16.2383  16.6765  16.8875  16.9683  17.2264  17.2626  17.7250
    17.9410  18.8046  18.9351  19.3869  23.9161  24.6905

          k = 0.1667 0.2887-0.6124 (  4066 PWs)   bands (ev):

   -76.5329 -76.5329 -69.8884 -39.8480 -39.8461 -39.8328 -39.8325 -39.8178
   -39.8177 -35.9347 -35.9343 -35.9334  -2.2796  -2.2766  -2.2575  -2.2205
    -2.2045  10.2289  12.7297  13.6185  14.5708  15.1361  15.5968  15.6462
    16.0759  16.5353  16.6116  16.6974  16.9715  17.1945  17.3647  17.7482
    17.8062  18.0781  18.7963  18.8613  24.1362  24.7495

          k = 0.1667-0.6736 0.1361 (  4050 PWs)   bands (ev):

   -76.5334 -76.5324 -69.8884 -39.8415 -39.8404 -39.8399 -39.8248 -39.8244
   -39.8231 -35.9349 -35.9338 -35.9335  -2.2840  -2.2701  -2.2649  -2.2153
    -2.2063   9.8013  12.2985  14.0495  14.5469  15.3363  15.4761  15.5889
    16.2561  16.3326  16.8071  16.8183  17.0870  17.1670  17.3616  17.6939
    17.7045  18.1234  19.9827  20.4051  22.7209  25.3048

          k = 0.1667-0.6736 0.3402 (  4063 PWs)   bands (ev):

   -76.5338 -76.5320 -69.8884 -39.8458 -39.8341 -39.8334 -39.8316 -39.8305
   -39.8190 -35.9348 -35.9339 -35.9336  -2.2804  -2.2723  -2.2677  -2.2122
    -2.2104   9.4571  12.6980  14.1962  14.3458  15.2841  15.4429  15.6522
    16.1681  16.2707  16.7558  16.9064  17.0318  17.2234  17.2382  17.6934
    17.9408  18.4613  19.8728  21.0570  22.8088  25.2284

          k = 0.1667-0.6736 0.5443 (  4056 PWs)   bands (ev):

   -76.5339 -76.5319 -69.8884 -39.8481 -39.8419 -39.8396 -39.8253 -39.8225
   -39.8169 -35.9350 -35.9339 -35.9334  -2.2879  -2.2687  -2.2607  -2.2210
    -2.2053   9.5533  12.9331  14.2011  14.5815  15.2103  15.5731  15.7711
    15.8572  16.2383  16.6765  16.8875  16.9683  17.2264  17.2626  17.7250
    17.9410  18.8046  18.9351  19.3869  23.9161  24.6905

          k = 0.1667-0.6736-0.4763 (  4072 PWs)   bands (ev):

   -76.5338 -76.5320 -69.8884 -39.8480 -39.8464 -39.8461 -39.8190 -39.8189
   -39.8166 -35.9355 -35.9336 -35.9334  -2.2970  -2.2595  -2.2568  -2.2276
    -2.2007  10.0447  12.6714  14.1261  15.0292  15.1728  15.5378  15.7537
    15.9666  16.1711  16.6898  16.8869  16.9601  17.0618  17.4112  17.6385
    17.8222  18.2107  18.4517  18.7359  22.5255  24.1181

          k = 0.1667-0.6736-0.2722 (  4086 PWs)   bands (ev):

   -76.5334 -76.5324 -69.8884 -39.8506 -39.8484 -39.8407 -39.8247 -39.8162
   -39.8150 -35.9354 -35.9339 -35.9333  -2.2919  -2.2661  -2.2532  -2.2270
    -2.2010  10.3938  12.8373  13.8608  14.4594  15.2989  15.5982  15.7015
    15.8953  16.2905  16.6778  16.7271  17.1210  17.2522  17.4650  17.4739
    17.8519  18.1045  18.1728  18.1948  23.6914  24.4362

          k = 0.1667-0.6736-0.0680 (  4066 PWs)   bands (ev):

   -76.5329 -76.5329 -69.8884 -39.8480 -39.8461 -39.8328 -39.8325 -39.8178
   -39.8177 -35.9347 -35.9343 -35.9334  -2.2797  -2.2766  -2.2574  -2.2205
    -2.2045  10.2289  12.7296  13.6185  14.5708  15.1361  15.5968  15.6462
    16.0759  16.5353  16.6115  16.6974  16.9715  17.1945  17.3647  17.7482
    17.8062  18.0781  18.7963  18.8613  24.1362  24.7495

          k = 0.3333-0.5774 0.0000 (  4087 PWs)   bands (ev):

   -76.5329 -76.5329 -69.8884 -39.8495 -39.8414 -39.8408 -39.8245 -39.8238
   -39.8155 -35.9349 -35.9342 -35.9335  -2.2846  -2.2687  -2.2602  -2.2203
    -2.2047  10.2192  13.0240  13.2414  14.6914  15.0291  15.4291  15.9099
    16.0717  16.5003  16.6272  16.7135  16.9446  17.0906  17.2301  17.9210
    18.0153  18.0587  18.4734  19.3491  22.6004  27.0617

          k = 0.3333-0.5774 0.2041 (  4066 PWs)   bands (ev):

   -76.5329 -76.5329 -69.8884 -39.8480 -39.8461 -39.8328 -39.8325 -39.8178
   -39.8177 -35.9347 -35.9343 -35.9334  -2.2796  -2.2766  -2.2574  -2.2205
    -2.2045  10.2289  12.7296  13.6184  14.5708  15.1361  15.5968  15.6462
    16.0759  16.5353  16.6116  16.6974  16.9715  17.1945  17.3647  17.7482
    17.8062  18.0781  18.7963  18.8613  24.1362  24.7495

 ------ SPIN DOWN ----------


          k = 0.0000 0.0000 0.0000 (  4015 PWs)   bands (ev):

   -74.9877 -74.9811 -66.6378 -38.3402 -38.3402 -38.3402 -38.3137 -38.3137
   -38.3137 -32.7611 -32.7611 -32.7611  -2.2819  -2.2819  -2.2819  -2.2276
    -2.2276   7.4387  15.5030  15.5030  15.5030  16.4356  16.4356  17.3973
    17.3973  17.3973  18.9906  18.9906  18.9906  19.6272  19.6272  20.0895
    20.0895  23.3118  23.6482  23.6482  23.6482  25.0322

          k = 0.0000 0.0000 0.2041 (  4047 PWs)   bands (ev):

   -74.9872 -74.9816 -66.6379 -38.3390 -38.3385 -38.3385 -38.3157 -38.3157
   -38.3155 -32.7616 -32.7611 -32.7611  -2.2827  -2.2786  -2.2786  -2.2251
    -2.2251   7.8098  14.9519  15.4755  15.4755  16.6236  16.6236  17.2341
    17.3406  17.3406  18.4714  18.7611  18.7611  19.6705  19.6705  20.0201
    20.0201  21.9811  23.4397  23.4397  23.4821  24.8634

          k = 0.0000 0.0000 0.4082 (  4068 PWs)   bands (ev):

   -74.9860 -74.9828 -66.6379 -38.3347 -38.3340 -38.3340 -38.3207 -38.3207
   -38.3205 -32.7623 -32.7611 -32.7611  -2.2844  -2.2731  -2.2731  -2.2192
    -2.2192   8.8432  13.3409  15.4647  15.4647  16.8960  16.9238  16.9238
    17.3163  17.3163  18.0688  18.3643  18.3643  19.6282  19.6282  19.9204
    19.9204  20.4854  23.1684  23.2923  23.2923  24.1526

          k = 0.0000 0.0000-0.6124 (  4092 PWs)   bands (ev):

   -74.9844 -74.9844 -66.6380 -38.3283 -38.3282 -38.3282 -38.3271 -38.3270
   -38.3270 -32.7626 -32.7612 -32.7612  -2.2854  -2.2708  -2.2708  -2.2157
    -2.2157   9.8183  12.0213  15.4707  15.4707  16.8568  17.0240  17.0240
    17.3705  17.3705  17.9581  18.1816  18.1816  19.5642  19.5642  19.8248
    19.8790  19.8790  23.1407  23.4099  23.4099  23.6602

          k = 0.0000 0.1925-0.0680 (  4047 PWs)   bands (ev):

   -74.9872 -74.9816 -66.6379 -38.3390 -38.3385 -38.3385 -38.3157 -38.3157
   -38.3155 -32.7616 -32.7611 -32.7611  -2.2827  -2.2786  -2.2786  -2.2251
    -2.2251   7.8098  14.9519  15.4755  15.4755  16.6236  16.6236  17.2341
    17.3406  17.3406  18.4714  18.7610  18.7611  19.6705  19.6705  20.0201
    20.0201  21.9811  23.4397  23.4397  23.4821  24.8634

          k = 0.0000 0.1925 0.1361 (  4056 PWs)   bands (ev):

   -74.9871 -74.9817 -66.6379 -38.3414 -38.3414 -38.3324 -38.3220 -38.3131
   -38.3131 -32.7618 -32.7611 -32.7611  -2.2879  -2.2749  -2.2749  -2.2281
    -2.2218   7.9315  14.7125  15.6380  15.6380  16.5982  16.6065  17.0071
    17.4124  17.4124  18.5420  18.5421  18.6874  19.6171  19.7001  19.9019
    20.0604  21.9975  22.3893  22.3894  24.0834  24.4094

          k = 0.0000 0.1925 0.3402 (  4051 PWs)   bands (ev):

   -74.9863 -74.9825 -66.6379 -38.3406 -38.3405 -38.3298 -38.3247 -38.3143
   -38.3141 -32.7623 -32.7611 -32.7609  -2.2898  -2.2704  -2.2687  -2.2271
    -2.2159   8.7409  13.8556  15.3126  15.7007  16.6144  16.8406  16.8436
    17.3239  17.4567  18.0884  18.1746  18.5799  19.5937  19.6882  19.7447
    19.9847  20.8337  21.5187  21.6798  23.6704  25.3732

          k = 0.0000 0.1925-0.6804 (  4050 PWs)   bands (ev):

   -74.9849 -74.9838 -66.6380 -38.3373 -38.3360 -38.3357 -38.3192 -38.3188
   -38.3175 -32.7624 -32.7612 -32.7609  -2.2854  -2.2715  -2.2662  -2.2224
    -2.2134   9.8693  12.5233  14.9042  15.6297  16.4766  16.9753  17.0921
    17.3964  17.5259  18.0061  18.0213  18.3060  19.5535  19.5910  19.7466
    19.8479  19.8848  21.2707  21.5736  23.4393  25.7808

          k = 0.0000 0.1925-0.4763 (  4063 PWs)   bands (ev):

   -74.9853 -74.9834 -66.6380 -38.3420 -38.3291 -38.3287 -38.3265 -38.3255
   -38.3129 -32.7623 -32.7613 -32.7610  -2.2818  -2.2737  -2.2690  -2.2191
    -2.2177   9.5226  12.9668  14.8982  15.4833  16.5347  17.0314  17.1014
    17.2991  17.5231  17.9794  18.1806  18.2563  19.5500  19.7240  19.7457
    19.8578  20.1422  21.2258  22.1033  23.3624  25.7771

          k = 0.0000 0.1925-0.2722 (  4039 PWs)   bands (ev):

   -74.9866 -74.9822 -66.6379 -38.3423 -38.3337 -38.3328 -38.3214 -38.3210
   -38.3122 -32.7619 -32.7611 -32.7610  -2.2836  -2.2752  -2.2739  -2.2236
    -2.2208   8.4029  14.2764  15.3847  15.3978  16.6237  16.9184  16.9805
    17.1745  17.4837  18.1817  18.3176  18.6055  19.5965  19.8011  19.8783
    19.9486  21.4455  21.5573  23.0524  23.4610  25.7602

          k = 0.0000 0.3849-0.1361 (  4068 PWs)   bands (ev):

   -74.9860 -74.9828 -66.6379 -38.3347 -38.3340 -38.3340 -38.3207 -38.3207
   -38.3205 -32.7623 -32.7611 -32.7611  -2.2844  -2.2731  -2.2731  -2.2192
    -2.2192   8.8432  13.3409  15.4647  15.4647  16.8960  16.9238  16.9238
    17.3163  17.3163  18.0688  18.3642  18.3643  19.6282  19.6282  19.9204
    19.9204  20.4854  23.1685  23.2923  23.2923  24.1526

          k = 0.0000 0.3849 0.0680 (  4051 PWs)   bands (ev):

   -74.9863 -74.9825 -66.6379 -38.3406 -38.3405 -38.3298 -38.3247 -38.3143
   -38.3141 -32.7623 -32.7611 -32.7609  -2.2898  -2.2704  -2.2687  -2.2271
    -2.2159   8.7409  13.8556  15.3126  15.7007  16.6144  16.8406  16.8436
    17.3239  17.4567  18.0884  18.1746  18.5799  19.5937  19.6882  19.7447
    19.9847  20.8337  21.5187  21.6798  23.6704  25.3732

          k = 0.0000 0.3849 0.2722 (  4056 PWs)   bands (ev):

   -74.9860 -74.9828 -66.6380 -38.3435 -38.3435 -38.3385 -38.3160 -38.3115
   -38.3115 -32.7629 -32.7608 -32.7608  -2.3000  -2.2611  -2.2611  -2.2346
    -2.2102   9.2721  13.4755  15.9813  15.9813  16.1741  16.1749  17.0357
    17.3932  17.3932  17.9711  17.9712  18.5932  19.4365  19.5843  19.5971
    19.9881  20.4302  20.6250  20.6250  23.2028  24.1201

          k = 0.0000 0.3849-0.7485 (  4072 PWs)   bands (ev):

   -74.9853 -74.9834 -66.6380 -38.3445 -38.3424 -38.3422 -38.3130 -38.3130
   -38.3103 -32.7629 -32.7611 -32.7608  -2.2983  -2.2607  -2.2580  -2.2347
    -2.2078  10.1649  12.9958  14.6663  15.8574  15.9986  16.9191  17.0524
    17.3246  17.6022  17.8151  17.9042  18.5410  19.4014  19.4876  19.6439
    19.8757  19.9540  20.1852  20.2267  23.4136  24.9764

          k = 0.0000 0.3849-0.5443 (  4087 PWs)   bands (ev):

   -74.9844 -74.9844 -66.6380 -38.3460 -38.3369 -38.3366 -38.3188 -38.3182
   -38.3092 -32.7623 -32.7617 -32.7609  -2.2860  -2.2700  -2.2614  -2.2273
    -2.2121  10.3305  13.3480  13.5273  15.7333  16.0423  16.9979  17.3511
    17.3999  17.5837  17.9302  18.0186  18.2244  19.4339  19.5957  19.6885
    19.8530  20.0668  20.1290  20.6753  23.4432  27.6475

          k = 0.0000 0.3849-0.3402 (  4063 PWs)   bands (ev):

   -74.9853 -74.9834 -66.6380 -38.3420 -38.3291 -38.3287 -38.3265 -38.3255
   -38.3129 -32.7623 -32.7613 -32.7610  -2.2818  -2.2737  -2.2690  -2.2191
    -2.2177   9.5226  12.9668  14.8982  15.4833  16.5347  17.0314  17.1014
    17.2991  17.5231  17.9794  18.1806  18.2563  19.5500  19.7240  19.7457
    19.8578  20.1422  21.2258  22.1033  23.3624  25.7773

          k = 0.0000-0.5774 0.2041 (  4092 PWs)   bands (ev):

   -74.9844 -74.9844 -66.6380 -38.3282 -38.3282 -38.3282 -38.3271 -38.3270
   -38.3270 -32.7626 -32.7612 -32.7612  -2.2854  -2.2708  -2.2708  -2.2157
    -2.2157   9.8183  12.0213  15.4707  15.4707  16.8568  17.0240  17.0240
    17.3705  17.3705  17.9582  18.1816  18.1816  19.5642  19.5642  19.8248
    19.8790  19.8790  23.1407  23.4099  23.4100  23.6602

          k = 0.0000-0.5774 0.4082 (  4050 PWs)   bands (ev):

   -74.9849 -74.9838 -66.6380 -38.3373 -38.3360 -38.3357 -38.3192 -38.3188
   -38.3175 -32.7624 -32.7612 -32.7609  -2.2854  -2.2714  -2.2662  -2.2224
    -2.2134   9.8693  12.5233  14.9042  15.6297  16.4766  16.9753  17.0921
    17.3964  17.5260  18.0061  18.0213  18.3060  19.5534  19.5910  19.7466
    19.8479  19.8848  21.2707  21.5736  23.4393  25.7810

          k = 0.0000-0.5774 0.6124 (  4072 PWs)   bands (ev):

   -74.9853 -74.9834 -66.6380 -38.3445 -38.3424 -38.3422 -38.3130 -38.3130
   -38.3103 -32.7629 -32.7611 -32.7608  -2.2983  -2.2607  -2.2580  -2.2347
    -2.2078  10.1649  12.9958  14.6663  15.8574  15.9986  16.9191  17.0524
    17.3246  17.6022  17.8151  17.9042  18.5410  19.4014  19.4876  19.6439
    19.8757  19.9540  20.1852  20.2267  23.4136  24.9764

          k = 0.0000-0.5774-0.4082 (  4088 PWs)   bands (ev):

   -74.9854 -74.9833 -66.6380 -38.3471 -38.3447 -38.3447 -38.3107 -38.3107
   -38.3080 -32.7635 -32.7607 -32.7607  -2.3062  -2.2544  -2.2543  -2.2404
    -2.2045  10.4603  12.6110  15.4503  15.7903  16.2262  16.2262  17.2411
    17.2411  17.3381  17.9245  17.9245  18.6350  19.1138  19.4743  19.5869
    19.8341  19.8341  19.8842  20.0888  23.1005  24.0756

          k = 0.1667 0.2887-0.2041 (  4051 PWs)   bands (ev):

   -74.9863 -74.9825 -66.6379 -38.3406 -38.3405 -38.3298 -38.3247 -38.3143
   -38.3142 -32.7623 -32.7611 -32.7609  -2.2898  -2.2704  -2.2687  -2.2271
    -2.2159   8.7409  13.8556  15.3126  15.7007  16.6144  16.8406  16.8436
    17.3239  17.4567  18.0884  18.1746  18.5799  19.5937  19.6882  19.7447
    19.9847  20.8338  21.5187  21.6798  23.6704  25.3732

          k = 0.1667 0.2887-0.0000 (  4039 PWs)   bands (ev):

   -74.9866 -74.9822 -66.6379 -38.3423 -38.3337 -38.3328 -38.3214 -38.3210
   -38.3122 -32.7619 -32.7611 -32.7610  -2.2836  -2.2752  -2.2739  -2.2236
    -2.2208   8.4029  14.2764  15.3847  15.3978  16.6237  16.9183  16.9805
    17.1744  17.4837  18.1817  18.3176  18.6055  19.5965  19.8010  19.8783
    19.9486  21.4455  21.5573  23.0524  23.4610  25.7604

          k = 0.1667 0.2887-0.8165 (  4056 PWs)   bands (ev):

   -74.9855 -74.9833 -66.6380 -38.3444 -38.3379 -38.3352 -38.3198 -38.3167
   -38.3107 -32.7624 -32.7613 -32.7608  -2.2892  -2.2701  -2.2619  -2.2281
    -2.2124   9.6337  13.3628  14.7048  15.4410  16.4261  16.9661  17.0781
    17.2220  17.6760  17.8725  17.9924  18.4621  19.5555  19.5925  19.7137
    19.8903  20.3156  20.4863  20.7736  24.4639  25.4472

          k = 0.1667 0.2887-0.6124 (  4066 PWs)   bands (ev):

   -74.9844 -74.9844 -66.6380 -38.3441 -38.3425 -38.3278 -38.3275 -38.3117
   -38.3116 -32.7622 -32.7617 -32.7608  -2.2810  -2.2779  -2.2587  -2.2275
    -2.2117  10.3398  12.9707  14.1198  15.2949  16.3102  17.0827  17.1019
    17.4056  17.6906  17.9241  17.9407  18.3193  19.5245  19.5603  19.6611
    19.8296  19.8794  20.3671  20.4130  24.6375  25.5894

          k = 0.1667-0.6736 0.1361 (  4050 PWs)   bands (ev):

   -74.9849 -74.9838 -66.6380 -38.3373 -38.3360 -38.3357 -38.3192 -38.3188
   -38.3175 -32.7624 -32.7612 -32.7609  -2.2854  -2.2715  -2.2662  -2.2224
    -2.2134   9.8693  12.5233  14.9042  15.6297  16.4766  16.9753  17.0921
    17.3964  17.5259  18.0061  18.0213  18.3060  19.5534  19.5910  19.7466
    19.8479  19.8848  21.2708  21.5736  23.4393  25.7808

          k = 0.1667-0.6736 0.3402 (  4063 PWs)   bands (ev):

   -74.9853 -74.9834 -66.6380 -38.3420 -38.3291 -38.3287 -38.3265 -38.3256
   -38.3129 -32.7623 -32.7613 -32.7610  -2.2818  -2.2737  -2.2690  -2.2191
    -2.2177   9.5226  12.9668  14.8982  15.4833  16.5347  17.0314  17.1014
    17.2991  17.5231  17.9794  18.1807  18.2563  19.5500  19.7240  19.7457
    19.8578  20.1422  21.2258  22.1033  23.3624  25.7774

          k = 0.1667-0.6736 0.5443 (  4056 PWs)   bands (ev):

   -74.9855 -74.9833 -66.6380 -38.3444 -38.3379 -38.3352 -38.3198 -38.3167
   -38.3107 -32.7624 -32.7613 -32.7608  -2.2892  -2.2701  -2.2619  -2.2281
    -2.2124   9.6337  13.3628  14.7048  15.4410  16.4261  16.9661  17.0781
    17.2220  17.6760  17.8725  17.9924  18.4622  19.5555  19.5925  19.7137
    19.8903  20.3156  20.4863  20.7736  24.4639  25.4472

          k = 0.1667-0.6736-0.4763 (  4072 PWs)   bands (ev):

   -74.9853 -74.9834 -66.6380 -38.3445 -38.3424 -38.3422 -38.3130 -38.3130
   -38.3103 -32.7629 -32.7611 -32.7608  -2.2983  -2.2607  -2.2580  -2.2347
    -2.2078  10.1649  12.9958  14.6663  15.8574  15.9986  16.9191  17.0524
    17.3246  17.6022  17.8150  17.9043  18.5410  19.4014  19.4876  19.6439
    19.8757  19.9540  20.1852  20.2267  23.4136  24.9764

          k = 0.1667-0.6736-0.2722 (  4086 PWs)   bands (ev):

   -74.9849 -74.9838 -66.6380 -38.3470 -38.3449 -38.3363 -38.3191 -38.3100
   -38.3086 -32.7628 -32.7614 -32.7608  -2.2932  -2.2673  -2.2543  -2.2340
    -2.2082  10.5529  13.0821  14.3604  14.8291  16.4176  17.0601  17.0869
    17.3046  17.6916  17.7970  17.9042  18.4780  19.4513  19.5385  19.6489
    19.7880  19.8901  19.9321  19.9703  24.3719  25.2877

          k = 0.1667-0.6736-0.0680 (  4066 PWs)   bands (ev):

   -74.9844 -74.9844 -66.6380 -38.3441 -38.3425 -38.3278 -38.3275 -38.3117
   -38.3116 -32.7622 -32.7618 -32.7608  -2.2810  -2.2779  -2.2587  -2.2275
    -2.2117  10.3398  12.9707  14.1198  15.2949  16.3102  17.0827  17.1019
    17.4056  17.6906  17.9241  17.9407  18.3193  19.5245  19.5603  19.6611
    19.8296  19.8794  20.3671  20.4130  24.6375  25.5894

          k = 0.3333-0.5774 0.0000 (  4087 PWs)   bands (ev):

   -74.9844 -74.9844 -66.6380 -38.3460 -38.3369 -38.3366 -38.3188 -38.3183
   -38.3092 -32.7623 -32.7617 -32.7609  -2.2860  -2.2700  -2.2614  -2.2273
    -2.2121  10.3305  13.3479  13.5273  15.7333  16.0423  16.9979  17.3511
    17.3999  17.5837  17.9302  18.0187  18.2244  19.4339  19.5957  19.6885
    19.8530  20.0668  20.1290  20.6753  23.4432  27.6475

          k = 0.3333-0.5774 0.2041 (  4066 PWs)   bands (ev):

   -74.9844 -74.9844 -66.6380 -38.3441 -38.3425 -38.3278 -38.3275 -38.3117
   -38.3116 -32.7622 -32.7617 -32.7608  -2.2810  -2.2779  -2.2587  -2.2275
    -2.2117  10.3398  12.9707  14.1198  15.2949  16.3102  17.0827  17.1018
    17.4056  17.6906  17.9241  17.9407  18.3193  19.5245  19.5603  19.6611
    19.8296  19.8794  20.3671  20.4130  24.6375  25.5894

     the Fermi energy is    19.3482 ev

!    total energy              =   -1524.76679026 Ry
     total all-electron energy =    -20474.047801 Ry
     estimated scf accuracy    <          2.2E-09 Ry
     smearing contrib. (-TS)   =      -0.00895408 Ry
     internal energy E=F+TS    =   -1524.75783619 Ry

     The total energy is F=E-TS. E is the sum of the following terms:
     one-electron contribution =    -441.50600832 Ry
     hartree contribution      =     270.92685570 Ry
     xc contribution           =    -137.83024679 Ry
     ewald contribution        =    -677.45861314 Ry
     one-center paw contrib.   =    -538.88982364 Ry

     total magnetization       =     5.34 Bohr mag/cell
     absolute magnetization    =     5.62 Bohr mag/cell

     convergence has been achieved in  20 iterations

     negative rho (up, down):  0.000E+00 1.391E-04

     Forces acting on atoms (cartesian axes, Ry/au):

     atom    1 type  2   force =     0.00000000    0.00000000    0.00000000
     atom    2 type  3   force =     0.00000000    0.00000000    0.00000000
     atom    3 type  1   force =     0.00000000   -0.00000000   -0.00000148
     atom    4 type  1   force =    -0.00000000    0.00000000    0.00000148

     Total force =     0.000002     Total SCF correction =     0.000010
     SCF correction compared to forces is large: reduce conv_thr to get better values


     Computing stress (Cartesian axis) and pressure


     negative rho (up, down):  0.000E+00 1.391E-04
          total   stress  (Ry/bohr**3)                   (kbar)     P=      121.95
   0.00082904   0.00000000   0.00000000          121.96        0.00        0.00
   0.00000000   0.00082904   0.00000000            0.00      121.96        0.00
   0.00000000   0.00000000   0.00082890            0.00        0.00      121.94


     Writing all to output data dir ./outdir/Co2FeSn.save/
 
     init_run     :      1.07s CPU      1.15s WALL (       1 calls)
     electrons    :     52.48s CPU     54.01s WALL (       1 calls)
     forces       :      0.29s CPU      0.30s WALL (       1 calls)
     stress       :      0.63s CPU      0.64s WALL (       1 calls)

     Called by init_run:
     wfcinit      :      0.68s CPU      0.71s WALL (       1 calls)
     potinit      :      0.17s CPU      0.19s WALL (       1 calls)
     hinit0       :      0.13s CPU      0.13s WALL (       1 calls)

     Called by electrons:
     c_bands      :     40.77s CPU     42.02s WALL (      20 calls)
     sum_band     :      7.36s CPU      7.58s WALL (      20 calls)
     v_of_rho     :      0.42s CPU      0.43s WALL (      21 calls)
     newd         :      1.01s CPU      1.02s WALL (      21 calls)
     PAW_pot      :      3.00s CPU      3.02s WALL (      21 calls)
     mix_rho      :      0.06s CPU      0.06s WALL (      20 calls)

     Called by c_bands:
     init_us_2    :      0.35s CPU      0.36s WALL (    2752 calls)
     init_us_2:cp :      0.33s CPU      0.36s WALL (    2752 calls)
     cegterg      :     39.34s CPU     40.47s WALL (    1280 calls)

     Called by *egterg:
     cdiaghg      :      9.59s CPU      9.67s WALL (    5805 calls)
     h_psi        :     25.04s CPU     26.04s WALL (    5869 calls)
     s_psi        :      0.90s CPU      0.93s WALL (    5869 calls)
     g_psi        :      0.11s CPU      0.11s WALL (    4525 calls)

     Called by h_psi:
     h_psi:calbec :      1.30s CPU      1.34s WALL (    5869 calls)
     vloc_psi     :     22.68s CPU     23.61s WALL (    5869 calls)
     add_vuspsi   :      0.93s CPU      0.97s WALL (    5869 calls)

     General routines
     calbec       :      1.80s CPU      1.87s WALL (    7469 calls)
     fft          :      0.16s CPU      0.16s WALL (     563 calls)
     ffts         :      0.01s CPU      0.01s WALL (      82 calls)
     fftw         :     25.26s CPU     26.32s WALL (  285342 calls)
     interpolate  :      0.02s CPU      0.02s WALL (      42 calls)
 
     Parallel routines
 
     PWSCF        :     55.40s CPU     57.47s WALL

 
   This run was terminated on:  23:27:55   8Oct2025            

=------------------------------------------------------------------------------=
   JOB DONE.
=------------------------------------------------------------------------------=
