
     Program PWSCF v.7.1 starts on  8Oct2025 at 23:33:41 

     This program is part of the open-source Quantum ESPRESSO suite
     for quantum simulation of materials; please cite
         "P. Giannozzi et al., J. Phys.:Condens. Matter 21 395502 (2009);
         "P. Giannozzi et al., J. Phys.:Condens. Matter 29 465901 (2017);
         "P. Giannozzi et al., J. Chem. Phys. 152 154105 (2020);
          URL http://www.quantum-espresso.org", 
     in publications or presentations arising from this work. More details at
     http://www.quantum-espresso.org/quote

     Parallel version (MPI), running on    20 processors

     MPI processes distributed on     1 nodes
     60561 MiB available memory on the printing compute node when the environment starts
 
     Reading input from Co2FeSn_105.in

     Current dimensions of program PWSCF are:
     Max number of different atomic species (ntypx) = 10
     Max number of k-points (npk) =  40000
     Max angular momentum in pseudopotentials (lmaxx) =  4
     file Co.pbe-spn-kjpaw_psl.0.3.1.UPF: wavefunction(s)  3P 3D renormalized
     file Fe.pbe-spn-kjpaw_psl.1.0.0.UPF: wavefunction(s)  3P 3D renormalized
     file Sn.pbe-dn-kjpaw_psl.1.0.0.UPF: wavefunction(s)  5S 5P 4D renormalized
 
     R & G space division:  proc/nbgrp/npool/nimage =      20
     Subspace diagonalization in iterative solution of the eigenvalue problem:
     a serial algorithm will be used

 
     Parallelization info
     --------------------
     sticks:   dense  smooth     PW     G-vecs:    dense   smooth      PW
     Min         175      88     24                 6892     2437     366
     Max         176      89     25                 6896     2439     370
     Sum        3505    1765    499               137867    48767    7391
 
     Using Slab Decomposition
 


     bravais-lattice index     =           14
     lattice parameter (alat)  =       7.8036  a.u.
     unit-cell volume          =     336.0264 (a.u.)^3
     number of atoms/cell      =            4
     number of atomic types    =            3
     number of electrons       =        64.00
     number of Kohn-Sham states=           38
     kinetic-energy cutoff     =     105.0000  Ry
     charge density cutoff     =     840.0000  Ry
     scf convergence threshold =      1.0E-08
     mixing beta               =       0.2000
     number of iterations used =            8  plain     mixing
     Exchange-correlation= SLA  PW   PBX  PBC
                           (   1   4   3   4   0   0   0)

     celldm(1)=   7.803620  celldm(2)=   1.000000  celldm(3)=   1.000000
     celldm(4)=   0.500000  celldm(5)=   0.500000  celldm(6)=   0.500000

     crystal axes: (cart. coord. in units of alat)
               a(1) = (   1.000000   0.000000   0.000000 )  
               a(2) = (   0.500000   0.866025   0.000000 )  
               a(3) = (   0.500000   0.288675   0.816497 )  

     reciprocal axes: (cart. coord. in units 2 pi/alat)
               b(1) = (  1.000000 -0.577350 -0.408248 )  
               b(2) = (  0.000000  1.154701 -0.408248 )  
               b(3) = (  0.000000  0.000000  1.224745 )  


     PseudoPot. # 1 for Co read from file:
     <HPC_PATH>
     MD5 check sum: 3c0a43779828c046024e4f3be63f8e67
     Pseudo is Projector augmented-wave + core cor, Zval = 17.0
     Generated using &quot;atomic&quot; code by A. Dal Corso  v.6.2.2
     Shape of augmentation charge: PSQ
     Using radial grid of 1193 points,  6 beta functions with: 
                l(1) =   0
                l(2) =   0
                l(3) =   1
                l(4) =   1
                l(5) =   2
                l(6) =   2
     Q(r) pseudized with 0 coefficients 


     PseudoPot. # 2 for Fe read from file:
     <HPC_PATH>
     MD5 check sum: fc81f059e5c5069939230b1155715ae8
     Pseudo is Projector augmented-wave + core cor, Zval = 16.0
     Generated using &quot;atomic&quot; code by A. Dal Corso  v.6.3
     Shape of augmentation charge: PSQ
     Using radial grid of 1191 points,  6 beta functions with: 
                l(1) =   0
                l(2) =   0
                l(3) =   1
                l(4) =   1
                l(5) =   2
                l(6) =   2
     Q(r) pseudized with 0 coefficients 


     PseudoPot. # 3 for Sn read from file:
     <HPC_PATH>
     MD5 check sum: 67f11dec737d427557dc41ea34975807
     Pseudo is Projector augmented-wave + core cor, Zval = 14.0
     Generated using &quot;atomic&quot; code by A. Dal Corso  v.6.3
     Shape of augmentation charge: PSQ
     Using radial grid of 1243 points,  6 beta functions with: 
                l(1) =   0
                l(2) =   0
                l(3) =   1
                l(4) =   1
                l(5) =   2
                l(6) =   2
     Q(r) pseudized with 0 coefficients 


     atomic species   valence    mass     pseudopotential
        Co            17.00    58.93300     Co( 1.00)
        Fe            16.00    55.84500     Fe( 1.00)
        Sn            14.00   118.71000     Sn( 1.00)

     Starting magnetic structure 
     atomic species   magnetization
        Co           0.500
        Fe           0.500
        Sn           0.000

     12 Sym. Ops., with inversion, found



   Cartesian axes

     site n.     atom                  positions (alat units)
         1           Fe  tau(   1) = (   1.0000000   0.5773503   0.4082483  )
         2           Sn  tau(   2) = (   0.0000000   0.0000000   0.0000000  )
         3           Co  tau(   3) = (   0.5000000   0.2886751   0.2041241  )
         4           Co  tau(   4) = (   1.5000000   0.8660254   0.6123724  )

     number of k points=    32  Gaussian smearing, width (Ry)=  0.0200
                       cart. coord. in units 2pi/alat
        k(    1) = (   0.0000000   0.0000000   0.0000000), wk =   0.0046296
        k(    2) = (   0.0000000   0.0000000   0.2041241), wk =   0.0092593
        k(    3) = (   0.0000000   0.0000000   0.4082483), wk =   0.0092593
        k(    4) = (   0.0000000   0.0000000  -0.6123724), wk =   0.0046296
        k(    5) = (   0.0000000   0.1924501  -0.0680414), wk =   0.0277778
        k(    6) = (   0.0000000   0.1924501   0.1360828), wk =   0.0277778
        k(    7) = (   0.0000000   0.1924501   0.3402069), wk =   0.0277778
        k(    8) = (   0.0000000   0.1924501  -0.6804138), wk =   0.0277778
        k(    9) = (   0.0000000   0.1924501  -0.4762897), wk =   0.0277778
        k(   10) = (   0.0000000   0.1924501  -0.2721655), wk =   0.0277778
        k(   11) = (   0.0000000   0.3849002  -0.1360828), wk =   0.0277778
        k(   12) = (   0.0000000   0.3849002   0.0680414), wk =   0.0277778
        k(   13) = (   0.0000000   0.3849002   0.2721655), wk =   0.0277778
        k(   14) = (   0.0000000   0.3849002  -0.7484552), wk =   0.0277778
        k(   15) = (   0.0000000   0.3849002  -0.5443311), wk =   0.0277778
        k(   16) = (   0.0000000   0.3849002  -0.3402069), wk =   0.0277778
        k(   17) = (   0.0000000  -0.5773503   0.2041241), wk =   0.0138889
        k(   18) = (   0.0000000  -0.5773503   0.4082483), wk =   0.0277778
        k(   19) = (   0.0000000  -0.5773503   0.6123724), wk =   0.0277778
        k(   20) = (   0.0000000  -0.5773503  -0.4082483), wk =   0.0138889
        k(   21) = (   0.1666667   0.2886751  -0.2041241), wk =   0.0555556
        k(   22) = (   0.1666667   0.2886751  -0.0000000), wk =   0.0277778
        k(   23) = (   0.1666667   0.2886751  -0.8164966), wk =   0.0555556
        k(   24) = (   0.1666667   0.2886751  -0.6123724), wk =   0.0277778
        k(   25) = (   0.1666667  -0.6735753   0.1360828), wk =   0.0555556
        k(   26) = (   0.1666667  -0.6735753   0.3402069), wk =   0.0555556
        k(   27) = (   0.1666667  -0.6735753   0.5443311), wk =   0.0555556
        k(   28) = (   0.1666667  -0.6735753  -0.4762897), wk =   0.0555556
        k(   29) = (   0.1666667  -0.6735753  -0.2721655), wk =   0.0555556
        k(   30) = (   0.1666667  -0.6735753  -0.0680414), wk =   0.0555556
        k(   31) = (   0.3333333  -0.5773503   0.0000000), wk =   0.0277778
        k(   32) = (   0.3333333  -0.5773503   0.2041241), wk =   0.0277778

     Dense  grid:   137867 G-vectors     FFT dimensions: (  72,  72,  72)

     Smooth grid:    48767 G-vectors     FFT dimensions: (  54,  54,  54)

     Estimated max dynamical RAM per process >      47.67 MB

     Estimated total dynamical RAM >     953.49 MB

     Check: negative core charge=   -0.000011
     Generating pointlists ...
     new r_m :   0.2526 (alat units)  1.9712 (a.u.) for type    1
     new r_m :   0.2526 (alat units)  1.9712 (a.u.) for type    2
     new r_m :   0.2526 (alat units)  1.9712 (a.u.) for type    3

     Initial potential from superposition of free atoms

     starting charge      63.9976, renormalised to      64.0000
     Starting wfcs are   39 randomized atomic wfcs
     Checking if some PAW data can be deallocated... 

     total cpu time spent up to now is        1.9 secs

     per-process dynamical memory:    92.4 Mb

     Self-consistent Calculation

     iteration #  1     ecut=   105.00 Ry     beta= 0.20
     Davidson diagonalization with overlap
     ethr =  1.00E-02,  avg # of iterations =  4.5

     total cpu time spent up to now is        5.6 secs

     total energy              =   -1523.36168972 Ry
     estimated scf accuracy    <       2.81766800 Ry

     total magnetization       =     8.05 Bohr mag/cell
     absolute magnetization    =     8.55 Bohr mag/cell

     iteration #  2     ecut=   105.00 Ry     beta= 0.20
     Davidson diagonalization with overlap
     ethr =  4.40E-03,  avg # of iterations =  1.8

     negative rho (up, down):  0.000E+00 5.598E-05

     total cpu time spent up to now is        8.5 secs

     total energy              =   -1524.26546211 Ry
     estimated scf accuracy    <       2.00827352 Ry

     total magnetization       =     7.47 Bohr mag/cell
     absolute magnetization    =     8.28 Bohr mag/cell

     iteration #  3     ecut=   105.00 Ry     beta= 0.20
     Davidson diagonalization with overlap
     ethr =  3.14E-03,  avg # of iterations =  1.5

     negative rho (up, down):  0.000E+00 1.491E-04

     total cpu time spent up to now is       11.4 secs

     total energy              =   -1524.52899665 Ry
     estimated scf accuracy    <       2.27242373 Ry

     total magnetization       =     6.96 Bohr mag/cell
     absolute magnetization    =     7.73 Bohr mag/cell

     iteration #  4     ecut=   105.00 Ry     beta= 0.20
     Davidson diagonalization with overlap
     ethr =  3.14E-03,  avg # of iterations =  1.0

     negative rho (up, down):  0.000E+00 1.490E-04

     total cpu time spent up to now is       14.2 secs

     total energy              =   -1524.74599769 Ry
     estimated scf accuracy    <       0.08765519 Ry

     total magnetization       =     5.55 Bohr mag/cell
     absolute magnetization    =     6.41 Bohr mag/cell

     iteration #  5     ecut=   105.00 Ry     beta= 0.20
     Davidson diagonalization with overlap
     ethr =  1.37E-04,  avg # of iterations =  5.4

     negative rho (up, down):  0.000E+00 1.426E-04

     total cpu time spent up to now is       18.2 secs

     total energy              =   -1524.76113972 Ry
     estimated scf accuracy    <       0.03692130 Ry

     total magnetization       =     5.48 Bohr mag/cell
     absolute magnetization    =     6.09 Bohr mag/cell

     iteration #  6     ecut=   105.00 Ry     beta= 0.20
     Davidson diagonalization with overlap
     ethr =  5.77E-05,  avg # of iterations =  3.6

     negative rho (up, down):  0.000E+00 1.299E-04

     total cpu time spent up to now is       21.9 secs

     total energy              =   -1524.76902130 Ry
     estimated scf accuracy    <       0.00985394 Ry

     total magnetization       =     5.27 Bohr mag/cell
     absolute magnetization    =     5.75 Bohr mag/cell

     iteration #  7     ecut=   105.00 Ry     beta= 0.20
     Davidson diagonalization with overlap
     ethr =  1.54E-05,  avg # of iterations =  4.7

     negative rho (up, down):  0.000E+00 1.130E-04

     total cpu time spent up to now is       25.7 secs

     total energy              =   -1524.77489016 Ry
     estimated scf accuracy    <       0.02596510 Ry

     total magnetization       =     5.42 Bohr mag/cell
     absolute magnetization    =     5.88 Bohr mag/cell

     iteration #  8     ecut=   105.00 Ry     beta= 0.20
     Davidson diagonalization with overlap
     ethr =  1.54E-05,  avg # of iterations =  2.1

     negative rho (up, down):  0.000E+00 1.054E-04

     total cpu time spent up to now is       28.8 secs

     total energy              =   -1524.77449218 Ry
     estimated scf accuracy    <       0.00931129 Ry

     total magnetization       =     5.33 Bohr mag/cell
     absolute magnetization    =     5.73 Bohr mag/cell

     iteration #  9     ecut=   105.00 Ry     beta= 0.20
     Davidson diagonalization with overlap
     ethr =  1.45E-05,  avg # of iterations =  2.7

     negative rho (up, down):  0.000E+00 1.015E-04

     total cpu time spent up to now is       32.0 secs

     total energy              =   -1524.77548886 Ry
     estimated scf accuracy    <       0.00338846 Ry

     total magnetization       =     5.37 Bohr mag/cell
     absolute magnetization    =     5.71 Bohr mag/cell

     iteration # 10     ecut=   105.00 Ry     beta= 0.20
     Davidson diagonalization with overlap
     c_bands:  1 eigenvalues not converged
     ethr =  5.29E-06,  avg # of iterations =  2.8

     negative rho (up, down):  0.000E+00 1.013E-04

     total cpu time spent up to now is       35.1 secs

     total energy              =   -1524.77609944 Ry
     estimated scf accuracy    <       0.00165958 Ry

     total magnetization       =     5.38 Bohr mag/cell
     absolute magnetization    =     5.71 Bohr mag/cell

     iteration # 11     ecut=   105.00 Ry     beta= 0.20
     Davidson diagonalization with overlap
     ethr =  2.59E-06,  avg # of iterations =  2.6

     negative rho (up, down):  0.000E+00 1.006E-04

     total cpu time spent up to now is       38.2 secs

     total energy              =   -1524.77612431 Ry
     estimated scf accuracy    <       0.00199233 Ry

     total magnetization       =     5.38 Bohr mag/cell
     absolute magnetization    =     5.71 Bohr mag/cell

     iteration # 12     ecut=   105.00 Ry     beta= 0.20
     Davidson diagonalization with overlap
     ethr =  2.59E-06,  avg # of iterations =  1.4

     negative rho (up, down):  0.000E+00 9.950E-05

     total cpu time spent up to now is       41.1 secs

     total energy              =   -1524.77623550 Ry
     estimated scf accuracy    <       0.00028453 Ry

     total magnetization       =     5.36 Bohr mag/cell
     absolute magnetization    =     5.68 Bohr mag/cell

     iteration # 13     ecut=   105.00 Ry     beta= 0.20
     Davidson diagonalization with overlap
     ethr =  4.45E-07,  avg # of iterations =  4.3

     negative rho (up, down):  0.000E+00 9.934E-05

     total cpu time spent up to now is       45.0 secs

     total energy              =   -1524.77636222 Ry
     estimated scf accuracy    <       0.00033666 Ry

     total magnetization       =     5.33 Bohr mag/cell
     absolute magnetization    =     5.62 Bohr mag/cell

     iteration # 14     ecut=   105.00 Ry     beta= 0.20
     Davidson diagonalization with overlap
     ethr =  4.45E-07,  avg # of iterations =  2.8

     negative rho (up, down):  0.000E+00 9.962E-05

     total cpu time spent up to now is       48.2 secs

     total energy              =   -1524.77640587 Ry
     estimated scf accuracy    <       0.00045596 Ry

     total magnetization       =     5.34 Bohr mag/cell
     absolute magnetization    =     5.63 Bohr mag/cell

     iteration # 15     ecut=   105.00 Ry     beta= 0.20
     Davidson diagonalization with overlap
     ethr =  4.45E-07,  avg # of iterations =  1.8

     negative rho (up, down):  0.000E+00 9.956E-05

     total cpu time spent up to now is       51.2 secs

     total energy              =   -1524.77640203 Ry
     estimated scf accuracy    <       0.00070109 Ry

     total magnetization       =     5.36 Bohr mag/cell
     absolute magnetization    =     5.65 Bohr mag/cell

     iteration # 16     ecut=   105.00 Ry     beta= 0.20
     Davidson diagonalization with overlap
     ethr =  4.45E-07,  avg # of iterations =  1.0

     negative rho (up, down):  0.000E+00 9.945E-05

     total cpu time spent up to now is       53.9 secs

     total energy              =   -1524.77639553 Ry
     estimated scf accuracy    <       0.00060911 Ry

     total magnetization       =     5.36 Bohr mag/cell
     absolute magnetization    =     5.65 Bohr mag/cell

     iteration # 17     ecut=   105.00 Ry     beta= 0.20
     Davidson diagonalization with overlap
     ethr =  4.45E-07,  avg # of iterations =  1.0

     negative rho (up, down):  0.000E+00 9.991E-05

     total cpu time spent up to now is       56.7 secs

     total energy              =   -1524.77639152 Ry
     estimated scf accuracy    <       0.00052875 Ry

     total magnetization       =     5.36 Bohr mag/cell
     absolute magnetization    =     5.65 Bohr mag/cell

     iteration # 18     ecut=   105.00 Ry     beta= 0.20
     Davidson diagonalization with overlap
     ethr =  4.45E-07,  avg # of iterations =  1.0

     negative rho (up, down):  0.000E+00 1.001E-04

     total cpu time spent up to now is       59.4 secs

     total energy              =   -1524.77638966 Ry
     estimated scf accuracy    <       0.00061513 Ry

     total magnetization       =     5.36 Bohr mag/cell
     absolute magnetization    =     5.65 Bohr mag/cell

     iteration # 19     ecut=   105.00 Ry     beta= 0.20
     Davidson diagonalization with overlap
     ethr =  4.45E-07,  avg # of iterations =  1.0

     negative rho (up, down):  0.000E+00 1.005E-04

     total cpu time spent up to now is       62.2 secs

     total energy              =   -1524.77625710 Ry
     estimated scf accuracy    <       0.00058850 Ry

     total magnetization       =     5.36 Bohr mag/cell
     absolute magnetization    =     5.65 Bohr mag/cell

     iteration # 20     ecut=   105.00 Ry     beta= 0.20
     Davidson diagonalization with overlap
     ethr =  4.45E-07,  avg # of iterations =  3.3

     negative rho (up, down):  0.000E+00 1.004E-04

     total cpu time spent up to now is       66.0 secs

     total energy              =   -1524.77637974 Ry
     estimated scf accuracy    <       0.00018461 Ry

     total magnetization       =     5.33 Bohr mag/cell
     absolute magnetization    =     5.62 Bohr mag/cell

     iteration # 21     ecut=   105.00 Ry     beta= 0.20
     Davidson diagonalization with overlap
     ethr =  2.88E-07,  avg # of iterations =  1.0

     negative rho (up, down):  0.000E+00 1.000E-04

     total cpu time spent up to now is       68.7 secs

     total energy              =   -1524.77636549 Ry
     estimated scf accuracy    <       0.00006728 Ry

     total magnetization       =     5.34 Bohr mag/cell
     absolute magnetization    =     5.62 Bohr mag/cell

     iteration # 22     ecut=   105.00 Ry     beta= 0.20
     Davidson diagonalization with overlap
     ethr =  1.05E-07,  avg # of iterations =  3.0

     negative rho (up, down):  0.000E+00 1.001E-04

     total cpu time spent up to now is       72.0 secs

     total energy              =   -1524.77637772 Ry
     estimated scf accuracy    <       0.00000109 Ry

     total magnetization       =     5.34 Bohr mag/cell
     absolute magnetization    =     5.63 Bohr mag/cell

     iteration # 23     ecut=   105.00 Ry     beta= 0.20
     Davidson diagonalization with overlap
     ethr =  1.70E-09,  avg # of iterations =  7.5

     negative rho (up, down):  0.000E+00 1.004E-04

     total cpu time spent up to now is       77.7 secs

     total energy              =   -1524.77637990 Ry
     estimated scf accuracy    <       0.00000173 Ry

     total magnetization       =     5.34 Bohr mag/cell
     absolute magnetization    =     5.63 Bohr mag/cell

     iteration # 24     ecut=   105.00 Ry     beta= 0.20
     Davidson diagonalization with overlap
     ethr =  1.70E-09,  avg # of iterations =  2.1

     negative rho (up, down):  0.000E+00 1.005E-04

     total cpu time spent up to now is       80.8 secs

     total energy              =   -1524.77638012 Ry
     estimated scf accuracy    <       0.00000026 Ry

     total magnetization       =     5.34 Bohr mag/cell
     absolute magnetization    =     5.63 Bohr mag/cell

     iteration # 25     ecut=   105.00 Ry     beta= 0.20
     Davidson diagonalization with overlap
     ethr =  4.09E-10,  avg # of iterations =  4.4

     negative rho (up, down):  0.000E+00 1.006E-04

     total cpu time spent up to now is       84.6 secs

     total energy              =   -1524.77638019 Ry
     estimated scf accuracy    <       0.00000017 Ry

     total magnetization       =     5.34 Bohr mag/cell
     absolute magnetization    =     5.62 Bohr mag/cell

     iteration # 26     ecut=   105.00 Ry     beta= 0.20
     Davidson diagonalization with overlap
     ethr =  2.73E-10,  avg # of iterations =  3.7

     negative rho (up, down):  0.000E+00 1.007E-04

     total cpu time spent up to now is       88.2 secs

     total energy              =   -1524.77638027 Ry
     estimated scf accuracy    <       0.00000015 Ry

     total magnetization       =     5.34 Bohr mag/cell
     absolute magnetization    =     5.62 Bohr mag/cell

     iteration # 27     ecut=   105.00 Ry     beta= 0.20
     Davidson diagonalization with overlap
     ethr =  2.27E-10,  avg # of iterations =  1.2

     negative rho (up, down):  0.000E+00 1.007E-04

     total cpu time spent up to now is       91.0 secs

     total energy              =   -1524.77638029 Ry
     estimated scf accuracy    <       0.00000002 Ry

     total magnetization       =     5.34 Bohr mag/cell
     absolute magnetization    =     5.62 Bohr mag/cell

     iteration # 28     ecut=   105.00 Ry     beta= 0.20
     Davidson diagonalization with overlap
     ethr =  3.53E-11,  avg # of iterations =  5.0

     negative rho (up, down):  0.000E+00 1.007E-04
 
     Magnetic moment per site  (integrated on atomic sphere of radius R)
     atom   1 (R=0.253)  charge= 14.4762  magn=  2.8201
     atom   2 (R=0.253)  charge= 11.1697  magn= -0.0081
     atom   3 (R=0.253)  charge= 15.7979  magn=  1.2986
     atom   4 (R=0.253)  charge= 15.7979  magn=  1.2986

     total cpu time spent up to now is       95.1 secs

     End of self-consistent calculation

 ------ SPIN UP ------------


          k = 0.0000 0.0000 0.0000 (  6081 PWs)   bands (ev):

   -76.5286 -76.5225 -69.8825 -39.8391 -39.8391 -39.8391 -39.8147 -39.8147
   -39.8147 -35.9294 -35.9294 -35.9294  -2.2805  -2.2805  -2.2805  -2.2209
    -2.2209   7.3703  14.7412  14.7412  14.9328  14.9328  14.9328  15.6493
    15.6493  15.6493  17.2166  17.2166  17.7746  17.7746  17.8428  17.8428
    17.8429  22.9789  23.2618  23.2618  23.2618  24.2607

          k = 0.0000 0.0000 0.2041 (  6105 PWs)   bands (ev):

   -76.5282 -76.5229 -69.8826 -39.8378 -39.8375 -39.8375 -39.8164 -39.8164
   -39.8161 -35.9297 -35.9293 -35.9293  -2.2812  -2.2772  -2.2772  -2.2182
    -2.2182   7.7429  14.4888  14.4888  14.5052  15.3568  15.3568  15.5658
    15.6339  15.6339  17.1848  17.1848  17.4857  17.5542  17.5542  17.8813
    17.8813  20.8518  22.6829  22.6829  23.1144  24.4252

          k = 0.0000 0.0000 0.4082 (  6108 PWs)   bands (ev):

   -76.5271 -76.5240 -69.8826 -39.8336 -39.8332 -39.8332 -39.8209 -39.8209
   -39.8205 -35.9302 -35.9291 -35.9291  -2.2829  -2.2716  -2.2716  -2.2121
    -2.2121   8.7815  13.0907  14.3528  14.3528  15.4681  15.4940  15.4940
    16.0126  16.0126  17.0703  17.0703  17.1441  17.3077  17.3077  17.7554
    17.7554  18.8919  22.2827  22.2827  22.8656  23.5719

          k = 0.0000 0.0000-0.6124 (  6116 PWs)   bands (ev):

   -76.5255 -76.5255 -69.8826 -39.8279 -39.8279 -39.8278 -39.8265 -39.8264
   -39.8264 -35.9304 -35.9291 -35.9291  -2.2838  -2.2692  -2.2692  -2.2085
    -2.2085   9.7743  11.8186  14.3240  14.3240  15.4811  15.4811  15.5200
    16.2881  16.2881  16.9844  16.9844  17.1595  17.2497  17.2497  17.6165
    17.6165  18.0163  22.2718  22.2718  22.8138  23.0471

          k = 0.0000 0.1925-0.0680 (  6105 PWs)   bands (ev):

   -76.5282 -76.5229 -69.8826 -39.8378 -39.8375 -39.8375 -39.8164 -39.8164
   -39.8161 -35.9297 -35.9293 -35.9293  -2.2812  -2.2772  -2.2772  -2.2182
    -2.2182   7.7429  14.4888  14.4888  14.5052  15.3568  15.3569  15.5658
    15.6339  15.6339  17.1848  17.1848  17.4857  17.5542  17.5542  17.8813
    17.8814  20.8518  22.6829  22.6829  23.1144  24.4252

          k = 0.0000 0.1925 0.1361 (  6090 PWs)   bands (ev):

   -76.5281 -76.5230 -69.8826 -39.8401 -39.8401 -39.8315 -39.8222 -39.8139
   -39.8139 -35.9299 -35.9292 -35.9292  -2.2865  -2.2735  -2.2735  -2.2211
    -2.2150   7.8643  13.9077  14.9013  15.1045  15.1045  15.3193  15.3998
    15.6908  15.6908  17.0539  17.2605  17.4511  17.5090  17.5090  17.7664
    17.9261  21.3581  21.3703  21.3703  23.4250  23.4959

          k = 0.0000 0.1925 0.3402 (  6107 PWs)   bands (ev):

   -76.5273 -76.5238 -69.8826 -39.8393 -39.8393 -39.8294 -39.8244 -39.8150
   -39.8150 -35.9303 -35.9291 -35.9290  -2.2884  -2.2690  -2.2673  -2.2198
    -2.2089   8.6736  13.3311  14.5423  14.7550  15.2849  15.4723  15.6272
    15.8164  15.9073  16.8875  17.0840  17.2331  17.2465  17.3232  17.7157
    17.8959  19.3872  20.5324  20.5390  22.8875  24.6628

          k = 0.0000 0.1925-0.6804 (  6118 PWs)   bands (ev):

   -76.5260 -76.5250 -69.8826 -39.8363 -39.8351 -39.8347 -39.8196 -39.8192
   -39.8179 -35.9303 -35.9293 -35.9289  -2.2839  -2.2700  -2.2648  -2.2152
    -2.2062   9.8011  12.2978  14.0491  14.5468  15.3364  15.4766  15.5895
    16.2561  16.3320  16.8070  16.8185  17.0874  17.1674  17.3619  17.6942
    17.7048  18.1242  19.9824  20.4050  22.7203  25.3039

          k = 0.0000 0.1925-0.4763 (  6119 PWs)   bands (ev):

   -76.5264 -76.5247 -69.8826 -39.8405 -39.8288 -39.8281 -39.8262 -39.8255
   -39.8137 -35.9301 -35.9293 -35.9291  -2.2804  -2.2722  -2.2676  -2.2121
    -2.2103   9.4568  12.6975  14.1957  14.3459  15.2843  15.4434  15.6529
    16.1683  16.2704  16.7558  16.9063  17.0322  17.2236  17.2386  17.6936
    17.9415  18.4620  19.8729  21.0567  22.8080  25.2273

          k = 0.0000 0.1925-0.2722 (  6107 PWs)   bands (ev):

   -76.5276 -76.5235 -69.8826 -39.8410 -39.8328 -39.8322 -39.8218 -39.8212
   -39.8131 -35.9299 -35.9292 -35.9292  -2.2822  -2.2739  -2.2724  -2.2164
    -2.2139   8.3373  13.7707  14.2816  14.8928  15.1450  15.5108  15.5134
    15.7723  15.8243  16.9911  17.2355  17.2416  17.2689  17.3443  17.7067
    18.0203  20.1581  20.2254  22.2953  23.1708  25.1643

          k = 0.0000 0.3849-0.1361 (  6108 PWs)   bands (ev):

   -76.5271 -76.5240 -69.8826 -39.8336 -39.8332 -39.8332 -39.8209 -39.8209
   -39.8205 -35.9302 -35.9292 -35.9291  -2.2829  -2.2716  -2.2716  -2.2121
    -2.2121   8.7815  13.0907  14.3528  14.3528  15.4681  15.4940  15.4940
    16.0126  16.0127  17.0704  17.0704  17.1441  17.3077  17.3077  17.7554
    17.7554  18.8919  22.2827  22.2827  22.8656  23.5719

          k = 0.0000 0.3849 0.0680 (  6107 PWs)   bands (ev):

   -76.5273 -76.5238 -69.8826 -39.8393 -39.8393 -39.8294 -39.8244 -39.8150
   -39.8150 -35.9303 -35.9291 -35.9290  -2.2884  -2.2690  -2.2673  -2.2198
    -2.2089   8.6736  13.3311  14.5423  14.7550  15.2849  15.4723  15.6272
    15.8164  15.9073  16.8876  17.0840  17.2331  17.2465  17.3232  17.7157
    17.8959  19.3872  20.5324  20.5390  22.8875  24.6628

          k = 0.0000 0.3849 0.2722 (  6106 PWs)   bands (ev):

   -76.5270 -76.5240 -69.8826 -39.8422 -39.8422 -39.8372 -39.8164 -39.8123
   -39.8123 -35.9308 -35.9288 -35.9288  -2.2986  -2.2598  -2.2598  -2.2273
    -2.2032   9.1912  12.9165  14.8314  15.3452  15.3923  15.4977  15.4977
    15.8659  15.8659  16.6034  17.0410  17.0410  17.1686  17.3066  17.7502
    17.7720  18.9567  19.2572  19.2572  22.3801  23.0234

          k = 0.0000 0.3849-0.7485 (  6102 PWs)   bands (ev):

   -76.5264 -76.5246 -69.8827 -39.8427 -39.8411 -39.8407 -39.8138 -39.8136
   -39.8113 -35.9308 -35.9289 -35.9287  -2.2969  -2.2594  -2.2567  -2.2275
    -2.2006  10.0447  12.6705  14.1254  15.0291  15.1729  15.5382  15.7545
    15.9667  16.1705  16.6902  16.8872  16.9607  17.0625  17.4116  17.6391
    17.8226  18.2114  18.4513  18.7363  22.5256  24.1168

          k = 0.0000 0.3849-0.5443 (  6111 PWs)   bands (ev):

   -76.5255 -76.5255 -69.8827 -39.8439 -39.8361 -39.8354 -39.8190 -39.8184
   -39.8102 -35.9302 -35.9295 -35.9288  -2.2845  -2.2687  -2.2602  -2.2202
    -2.2046  10.2192  13.0235  13.2404  14.6915  15.0290  15.4295  15.9106
    16.0724  16.5000  16.6273  16.7132  16.9454  17.0913  17.2308  17.9220
    18.0161  18.0596  18.4738  19.3487  22.5999  27.0607

          k = 0.0000 0.3849-0.3402 (  6119 PWs)   bands (ev):

   -76.5264 -76.5247 -69.8826 -39.8405 -39.8288 -39.8281 -39.8262 -39.8255
   -39.8137 -35.9301 -35.9293 -35.9291  -2.2804  -2.2722  -2.2676  -2.2121
    -2.2103   9.4568  12.6975  14.1957  14.3459  15.2843  15.4434  15.6529
    16.1683  16.2704  16.7558  16.9063  17.0322  17.2236  17.2387  17.6936
    17.9416  18.4620  19.8729  21.0567  22.8080  25.2268

          k = 0.0000-0.5774 0.2041 (  6116 PWs)   bands (ev):

   -76.5255 -76.5255 -69.8826 -39.8279 -39.8279 -39.8278 -39.8265 -39.8264
   -39.8264 -35.9304 -35.9291 -35.9291  -2.2838  -2.2692  -2.2692  -2.2085
    -2.2085   9.7743  11.8186  14.3240  14.3240  15.4811  15.4811  15.5200
    16.2881  16.2881  16.9845  16.9845  17.1595  17.2497  17.2497  17.6165
    17.6165  18.0163  22.2717  22.2718  22.8138  23.0471

          k = 0.0000-0.5774 0.4082 (  6118 PWs)   bands (ev):

   -76.5260 -76.5250 -69.8826 -39.8363 -39.8351 -39.8347 -39.8196 -39.8192
   -39.8179 -35.9303 -35.9293 -35.9289  -2.2839  -2.2700  -2.2648  -2.2152
    -2.2062   9.8011  12.2978  14.0491  14.5468  15.3364  15.4766  15.5895
    16.2561  16.3320  16.8070  16.8185  17.0874  17.1674  17.3619  17.6942
    17.7048  18.1242  19.9824  20.4050  22.7203  25.3039

          k = 0.0000-0.5774 0.6124 (  6102 PWs)   bands (ev):

   -76.5264 -76.5246 -69.8827 -39.8427 -39.8411 -39.8407 -39.8138 -39.8136
   -39.8113 -35.9308 -35.9289 -35.9287  -2.2969  -2.2594  -2.2567  -2.2275
    -2.2006  10.0447  12.6705  14.1254  15.0291  15.1729  15.5382  15.7545
    15.9667  16.1705  16.6902  16.8872  16.9607  17.0625  17.4116  17.6391
    17.8226  18.2114  18.4513  18.7363  22.5256  24.1168

          k = 0.0000-0.5774-0.4082 (  6074 PWs)   bands (ev):

   -76.5265 -76.5245 -69.8827 -39.8447 -39.8433 -39.8433 -39.8115 -39.8115
   -39.8089 -35.9313 -35.9286 -35.9286  -2.3048  -2.2531  -2.2531  -2.2332
    -2.1973  10.2871  12.4130  14.5418  14.8660  15.6766  15.6766  15.8905
    16.0365  16.0365  16.0540  16.9599  17.1516  17.1516  17.3650  17.6141
    17.7422  18.0603  18.0603  18.1872  22.2406  22.9183

          k = 0.1667 0.2887-0.2041 (  6107 PWs)   bands (ev):

   -76.5273 -76.5238 -69.8826 -39.8393 -39.8393 -39.8294 -39.8244 -39.8150
   -39.8150 -35.9303 -35.9291 -35.9290  -2.2884  -2.2690  -2.2673  -2.2198
    -2.2089   8.6736  13.3311  14.5423  14.7550  15.2849  15.4724  15.6272
    15.8164  15.9073  16.8876  17.0840  17.2331  17.2465  17.3231  17.7157
    17.8959  19.3872  20.5324  20.5390  22.8875  24.6628

          k = 0.1667 0.2887-0.0000 (  6107 PWs)   bands (ev):

   -76.5276 -76.5235 -69.8826 -39.8410 -39.8328 -39.8322 -39.8218 -39.8212
   -39.8131 -35.9299 -35.9293 -35.9292  -2.2822  -2.2739  -2.2724  -2.2164
    -2.2139   8.3373  13.7707  14.2816  14.8928  15.1450  15.5108  15.5134
    15.7723  15.8243  16.9911  17.2355  17.2416  17.2689  17.3443  17.7067
    18.0203  20.1581  20.2254  22.2953  23.1708  25.1634

          k = 0.1667 0.2887-0.8165 (  6107 PWs)   bands (ev):

   -76.5265 -76.5245 -69.8826 -39.8428 -39.8367 -39.8344 -39.8202 -39.8172
   -39.8116 -35.9304 -35.9292 -35.9289  -2.2878  -2.2687  -2.2607  -2.2208
    -2.2052   9.5531  12.9326  14.2004  14.5814  15.2103  15.5735  15.7714
    15.8576  16.2381  16.6767  16.8874  16.9689  17.2268  17.2629  17.7252
    17.9416  18.8053  18.9353  19.3862  23.9165  24.6882

          k = 0.1667 0.2887-0.6124 (  6098 PWs)   bands (ev):

   -76.5255 -76.5255 -69.8827 -39.8426 -39.8408 -39.8275 -39.8272 -39.8125
   -39.8125 -35.9300 -35.9297 -35.9288  -2.2796  -2.2765  -2.2574  -2.2203
    -2.2043  10.2288  12.7288  13.6176  14.5708  15.1363  15.5974  15.6464
    16.0762  16.5351  16.6113  16.6978  16.9721  17.1951  17.3653  17.7489
    17.8065  18.0791  18.7960  18.8610  24.1356  24.7493

          k = 0.1667-0.6736 0.1361 (  6118 PWs)   bands (ev):

   -76.5260 -76.5250 -69.8826 -39.8363 -39.8352 -39.8347 -39.8196 -39.8192
   -39.8179 -35.9303 -35.9293 -35.9289  -2.2839  -2.2700  -2.2648  -2.2152
    -2.2062   9.8011  12.2978  14.0491  14.5468  15.3364  15.4766  15.5895
    16.2560  16.3320  16.8070  16.8185  17.0874  17.1674  17.3618  17.6942
    17.7048  18.1242  19.9824  20.4050  22.7203  25.3039

          k = 0.1667-0.6736 0.3402 (  6119 PWs)   bands (ev):

   -76.5264 -76.5247 -69.8826 -39.8405 -39.8288 -39.8281 -39.8262 -39.8255
   -39.8137 -35.9301 -35.9293 -35.9291  -2.2804  -2.2722  -2.2676  -2.2121
    -2.2103   9.4568  12.6975  14.1957  14.3459  15.2843  15.4434  15.6529
    16.1683  16.2704  16.7558  16.9063  17.0322  17.2236  17.2386  17.6936
    17.9416  18.4620  19.8729  21.0567  22.8080  25.2277

          k = 0.1667-0.6736 0.5443 (  6107 PWs)   bands (ev):

   -76.5265 -76.5245 -69.8826 -39.8428 -39.8367 -39.8344 -39.8202 -39.8172
   -39.8116 -35.9304 -35.9292 -35.9289  -2.2878  -2.2687  -2.2607  -2.2208
    -2.2052   9.5531  12.9326  14.2004  14.5814  15.2103  15.5736  15.7714
    15.8576  16.2381  16.6767  16.8874  16.9689  17.2268  17.2629  17.7252
    17.9416  18.8053  18.9353  19.3862  23.9165  24.6882

          k = 0.1667-0.6736-0.4763 (  6102 PWs)   bands (ev):

   -76.5264 -76.5246 -69.8827 -39.8427 -39.8411 -39.8406 -39.8138 -39.8136
   -39.8113 -35.9308 -35.9289 -35.9287  -2.2969  -2.2594  -2.2567  -2.2275
    -2.2006  10.0447  12.6705  14.1254  15.0291  15.1729  15.5382  15.7545
    15.9667  16.1705  16.6902  16.8872  16.9607  17.0625  17.4116  17.6391
    17.8226  18.2114  18.4513  18.7363  22.5256  24.1168

          k = 0.1667-0.6736-0.2722 (  6090 PWs)   bands (ev):

   -76.5260 -76.5250 -69.8827 -39.8450 -39.8429 -39.8353 -39.8195 -39.8109
   -39.8095 -35.9306 -35.9293 -35.9286  -2.2918  -2.2660  -2.2531  -2.2268
    -2.2009  10.3940  12.8361  13.8599  14.4594  15.2995  15.5983  15.7023
    15.8951  16.2902  16.6786  16.7274  17.1215  17.2527  17.4656  17.4746
    17.8532  18.1041  18.1742  18.1947  23.6923  24.4340

          k = 0.1667-0.6736-0.0680 (  6098 PWs)   bands (ev):

   -76.5255 -76.5255 -69.8827 -39.8426 -39.8408 -39.8275 -39.8272 -39.8125
   -39.8125 -35.9300 -35.9297 -35.9288  -2.2796  -2.2765  -2.2574  -2.2203
    -2.2043  10.2288  12.7288  13.6176  14.5708  15.1363  15.5974  15.6464
    16.0762  16.5351  16.6113  16.6978  16.9721  17.1951  17.3653  17.7489
    17.8066  18.0791  18.7960  18.8610  24.1356  24.7493

          k = 0.3333-0.5774 0.0000 (  6111 PWs)   bands (ev):

   -76.5255 -76.5255 -69.8827 -39.8439 -39.8361 -39.8354 -39.8190 -39.8184
   -39.8102 -35.9302 -35.9295 -35.9288  -2.2845  -2.2687  -2.2602  -2.2202
    -2.2046  10.2192  13.0235  13.2403  14.6915  15.0290  15.4296  15.9106
    16.0724  16.5000  16.6273  16.7132  16.9454  17.0913  17.2308  17.9220
    18.0161  18.0596  18.4738  19.3487  22.5999  27.0607

          k = 0.3333-0.5774 0.2041 (  6098 PWs)   bands (ev):

   -76.5255 -76.5255 -69.8827 -39.8426 -39.8408 -39.8275 -39.8272 -39.8125
   -39.8125 -35.9300 -35.9297 -35.9288  -2.2796  -2.2765  -2.2574  -2.2203
    -2.2043  10.2288  12.7288  13.6176  14.5708  15.1363  15.5974  15.6464
    16.0761  16.5351  16.6113  16.6978  16.9721  17.1951  17.3653  17.7489
    17.8066  18.0791  18.7960  18.8610  24.1356  24.7493

 ------ SPIN DOWN ----------


          k = 0.0000 0.0000 0.0000 (  6081 PWs)   bands (ev):

   -74.9771 -74.9705 -66.6330 -38.3335 -38.3335 -38.3335 -38.3069 -38.3069
   -38.3069 -32.7576 -32.7576 -32.7576  -2.2818  -2.2818  -2.2818  -2.2274
    -2.2274   7.4379  15.5033  15.5034  15.5034  16.4372  16.4372  17.3972
    17.3972  17.3972  18.9925  18.9926  18.9926  19.6312  19.6312  20.0909
    20.0909  23.3116  23.6490  23.6490  23.6490  25.0314

          k = 0.0000 0.0000 0.2041 (  6105 PWs)   bands (ev):

   -74.9766 -74.9709 -66.6330 -38.3320 -38.3318 -38.3318 -38.3087 -38.3087
   -38.3085 -32.7579 -32.7575 -32.7575  -2.2826  -2.2786  -2.2786  -2.2250
    -2.2250   7.8091  14.9520  15.4760  15.4760  16.6251  16.6251  17.2342
    17.3412  17.3412  18.4731  18.7631  18.7631  19.6741  19.6741  20.0221
    20.0221  21.9825  23.4407  23.4407  23.4810  24.8627

          k = 0.0000 0.0000 0.4082 (  6108 PWs)   bands (ev):

   -74.9754 -74.9721 -66.6331 -38.3274 -38.3270 -38.3270 -38.3137 -38.3137
   -38.3135 -32.7585 -32.7574 -32.7574  -2.2844  -2.2730  -2.2730  -2.2191
    -2.2191   8.8427  13.3403  15.4653  15.4653  16.8966  16.9251  16.9251
    17.3174  17.3174  18.0703  18.3665  18.3665  19.6313  19.6313  19.9224
    19.9224  20.4868  23.1674  23.2935  23.2935  24.1527

          k = 0.0000 0.0000-0.6124 (  6116 PWs)   bands (ev):

   -74.9738 -74.9738 -66.6331 -38.3211 -38.3210 -38.3210 -38.3199 -38.3198
   -38.3198 -32.7588 -32.7573 -32.7573  -2.2853  -2.2707  -2.2707  -2.2156
    -2.2156   9.8182  12.0201  15.4715  15.4715  16.8576  17.0253  17.0253
    17.3720  17.3720  17.9589  18.1842  18.1842  19.5669  19.5669  19.8262
    19.8810  19.8810  23.1398  23.4117  23.4117  23.6608

          k = 0.0000 0.1925-0.0680 (  6105 PWs)   bands (ev):

   -74.9766 -74.9709 -66.6330 -38.3320 -38.3318 -38.3318 -38.3087 -38.3087
   -38.3085 -32.7579 -32.7575 -32.7575  -2.2826  -2.2786  -2.2786  -2.2250
    -2.2250   7.8091  14.9520  15.4760  15.4760  16.6251  16.6251  17.2343
    17.3411  17.3412  18.4732  18.7630  18.7631  19.6741  19.6741  20.0221
    20.0221  21.9825  23.4407  23.4407  23.4810  24.8627

          k = 0.0000 0.1925 0.1361 (  6090 PWs)   bands (ev):

   -74.9765 -74.9711 -66.6330 -38.3345 -38.3345 -38.3253 -38.3151 -38.3061
   -38.3061 -32.7581 -32.7574 -32.7574  -2.2878  -2.2748  -2.2748  -2.2280
    -2.2216   7.9308  14.7129  15.6384  15.6384  16.5995  16.6081  17.0074
    17.4129  17.4129  18.5436  18.5436  18.6896  19.6212  19.7034  19.9039
    20.0627  21.9980  22.3906  22.3906  24.0837  24.4080

          k = 0.0000 0.1925 0.3402 (  6107 PWs)   bands (ev):

   -74.9757 -74.9719 -66.6331 -38.3335 -38.3335 -38.3230 -38.3176 -38.3073
   -38.3073 -32.7585 -32.7574 -32.7573  -2.2897  -2.2703  -2.2686  -2.2269
    -2.2158   8.7403  13.8553  15.3127  15.7011  16.6150  16.8415  16.8451
    17.3248  17.4574  18.0899  18.1762  18.5820  19.5976  19.6911  19.7465
    19.9869  20.8350  21.5193  21.6813  23.6706  25.3724

          k = 0.0000 0.1925-0.6804 (  6118 PWs)   bands (ev):

   -74.9743 -74.9732 -66.6331 -38.3304 -38.3290 -38.3287 -38.3122 -38.3119
   -38.3105 -32.7586 -32.7575 -32.7572  -2.2853  -2.2714  -2.2662  -2.2223
    -2.2133   9.8690  12.5222  14.9041  15.6300  16.4770  16.9766  17.0932
    17.3975  17.5271  18.0077  18.0235  18.3079  19.5556  19.5940  19.7483
    19.8500  19.8865  21.2721  21.5750  23.4393  25.7805

          k = 0.0000 0.1925-0.4763 (  6119 PWs)   bands (ev):

   -74.9747 -74.9728 -66.6331 -38.3349 -38.3220 -38.3216 -38.3193 -38.3188
   -38.3060 -32.7585 -32.7576 -32.7573  -2.2818  -2.2737  -2.2689  -2.2190
    -2.2176   9.5222  12.9660  14.8978  15.4839  16.5356  17.0327  17.1025
    17.3004  17.5241  17.9814  18.1821  18.2587  19.5530  19.7265  19.7477
    19.8599  20.1438  21.2273  22.1045  23.3621  25.7754

          k = 0.0000 0.1925-0.2722 (  6107 PWs)   bands (ev):

   -74.9760 -74.9716 -66.6331 -38.3354 -38.3265 -38.3260 -38.3145 -38.3142
   -38.3053 -32.7582 -32.7574 -32.7574  -2.2835  -2.2751  -2.2738  -2.2234
    -2.2206   8.4023  14.2763  15.3845  15.3984  16.6251  16.9195  16.9810
    17.1753  17.4843  18.1833  18.3191  18.6079  19.6003  19.8038  19.8801
    19.9509  21.4470  21.5583  23.0529  23.4600  25.8142

          k = 0.0000 0.3849-0.1361 (  6108 PWs)   bands (ev):

   -74.9754 -74.9721 -66.6331 -38.3274 -38.3270 -38.3270 -38.3137 -38.3137
   -38.3135 -32.7585 -32.7574 -32.7574  -2.2844  -2.2730  -2.2730  -2.2191
    -2.2191   8.8427  13.3403  15.4653  15.4653  16.8967  16.9251  16.9251
    17.3174  17.3174  18.0704  18.3665  18.3665  19.6312  19.6313  19.9224
    19.9224  20.4869  23.1675  23.2935  23.2935  24.1527

          k = 0.0000 0.3849 0.0680 (  6107 PWs)   bands (ev):

   -74.9757 -74.9719 -66.6331 -38.3335 -38.3335 -38.3230 -38.3176 -38.3073
   -38.3073 -32.7585 -32.7574 -32.7573  -2.2897  -2.2703  -2.2686  -2.2269
    -2.2158   8.7403  13.8554  15.3127  15.7011  16.6150  16.8414  16.8451
    17.3248  17.4574  18.0900  18.1762  18.5820  19.5976  19.6911  19.7465
    19.9869  20.8350  21.5193  21.6813  23.6706  25.3723

          k = 0.0000 0.3849 0.2722 (  6106 PWs)   bands (ev):

   -74.9754 -74.9721 -66.6331 -38.3366 -38.3366 -38.3315 -38.3089 -38.3045
   -38.3045 -32.7591 -32.7571 -32.7571  -2.3000  -2.2610  -2.2610  -2.2344
    -2.2101   9.2716  13.4751  15.9813  15.9813  16.1743  16.1749  17.0377
    17.3939  17.3939  17.9727  17.9727  18.5953  19.4382  19.5870  19.6012
    19.9912  20.4312  20.6264  20.6265  23.2041  24.1185

          k = 0.0000 0.3849-0.7485 (  6102 PWs)   bands (ev):

   -74.9747 -74.9728 -66.6331 -38.3374 -38.3353 -38.3350 -38.3060 -38.3059
   -38.3033 -32.7591 -32.7573 -32.7570  -2.2983  -2.2606  -2.2579  -2.2346
    -2.2077  10.1648  12.9949  14.6656  15.8574  15.9986  16.9198  17.0540
    17.3257  17.6040  17.8166  17.9058  18.5429  19.4032  19.4902  19.6474
    19.8785  19.9564  20.1868  20.2288  23.4145  24.9756

          k = 0.0000 0.3849-0.5443 (  6111 PWs)   bands (ev):

   -74.9737 -74.9737 -66.6331 -38.3386 -38.3299 -38.3295 -38.3116 -38.3111
   -38.3022 -32.7584 -32.7579 -32.7571  -2.2859  -2.2699  -2.2613  -2.2272
    -2.2119  10.3305  13.3471  13.5262  15.7336  16.0425  16.9994  17.3524
    17.4010  17.5851  17.9325  18.0204  18.2263  19.4357  19.5985  19.6920
    19.8549  20.0687  20.1318  20.6771  23.4434  27.6469

          k = 0.0000 0.3849-0.3402 (  6119 PWs)   bands (ev):

   -74.9747 -74.9728 -66.6331 -38.3349 -38.3220 -38.3216 -38.3193 -38.3188
   -38.3060 -32.7585 -32.7576 -32.7573  -2.2818  -2.2737  -2.2689  -2.2190
    -2.2176   9.5222  12.9660  14.8978  15.4839  16.5356  17.0326  17.1025
    17.3004  17.5241  17.9814  18.1821  18.2587  19.5530  19.7265  19.7477
    19.8598  20.1438  21.2273  22.1045  23.3621  25.7769

          k = 0.0000-0.5774 0.2041 (  6116 PWs)   bands (ev):

   -74.9738 -74.9738 -66.6331 -38.3211 -38.3210 -38.3210 -38.3199 -38.3198
   -38.3198 -32.7588 -32.7573 -32.7573  -2.2853  -2.2707  -2.2707  -2.2156
    -2.2156   9.8182  12.0201  15.4715  15.4715  16.8576  17.0252  17.0252
    17.3720  17.3721  17.9590  18.1842  18.1842  19.5668  19.5669  19.8262
    19.8810  19.8810  23.1399  23.4117  23.4117  23.6608

          k = 0.0000-0.5774 0.4082 (  6118 PWs)   bands (ev):

   -74.9743 -74.9732 -66.6331 -38.3304 -38.3290 -38.3287 -38.3122 -38.3119
   -38.3105 -32.7586 -32.7575 -32.7572  -2.2853  -2.2714  -2.2662  -2.2223
    -2.2133   9.8690  12.5222  14.9041  15.6300  16.4770  16.9766  17.0932
    17.3975  17.5271  18.0077  18.0235  18.3079  19.5556  19.5940  19.7483
    19.8500  19.8865  21.2721  21.5750  23.4393  25.7805

          k = 0.0000-0.5774 0.6124 (  6102 PWs)   bands (ev):

   -74.9747 -74.9728 -66.6331 -38.3374 -38.3353 -38.3350 -38.3060 -38.3059
   -38.3033 -32.7591 -32.7573 -32.7570  -2.2983  -2.2606  -2.2579  -2.2346
    -2.2077  10.1648  12.9949  14.6656  15.8574  15.9986  16.9198  17.0540
    17.3257  17.6040  17.8166  17.9057  18.5429  19.4032  19.4902  19.6473
    19.8785  19.9564  20.1869  20.2288  23.4145  24.9756

          k = 0.0000-0.5774-0.4082 (  6074 PWs)   bands (ev):

   -74.9748 -74.9727 -66.6331 -38.3397 -38.3376 -38.3376 -38.3037 -38.3037
   -38.3007 -32.7595 -32.7569 -32.7569  -2.3061  -2.2543  -2.2543  -2.2402
    -2.2043  10.4605  12.6097  15.4502  15.7902  16.2258  16.2258  17.2425
    17.2425  17.3405  17.9258  17.9259  18.6371  19.1151  19.4771  19.5913
    19.8361  19.8361  19.8884  20.0908  23.1021  24.0742

          k = 0.1667 0.2887-0.2041 (  6107 PWs)   bands (ev):

   -74.9757 -74.9719 -66.6331 -38.3335 -38.3335 -38.3230 -38.3176 -38.3073
   -38.3073 -32.7585 -32.7574 -32.7573  -2.2897  -2.2703  -2.2686  -2.2269
    -2.2158   8.7403  13.8554  15.3127  15.7011  16.6150  16.8414  16.8451
    17.3248  17.4574  18.0900  18.1762  18.5820  19.5976  19.6911  19.7465
    19.9869  20.8350  21.5194  21.6812  23.6706  25.3723

          k = 0.1667 0.2887-0.0000 (  6107 PWs)   bands (ev):

   -74.9760 -74.9716 -66.6331 -38.3354 -38.3265 -38.3260 -38.3145 -38.3142
   -38.3053 -32.7582 -32.7574 -32.7574  -2.2835  -2.2751  -2.2738  -2.2234
    -2.2206   8.4023  14.2763  15.3845  15.3983  16.6251  16.9195  16.9810
    17.1753  17.4844  18.1833  18.3191  18.6078  19.6003  19.8038  19.8801
    19.9509  21.4470  21.5583  23.0529  23.4600  25.8141

          k = 0.1667 0.2887-0.8165 (  6107 PWs)   bands (ev):

   -74.9748 -74.9727 -66.6331 -38.3373 -38.3309 -38.3282 -38.3129 -38.3097
   -38.3037 -32.7587 -32.7575 -32.7572  -2.2892  -2.2700  -2.2619  -2.2280
    -2.2123   9.6333  13.3623  14.7040  15.4411  16.4268  16.9670  17.0795
    17.2231  17.6771  17.8744  17.9941  18.4642  19.5573  19.5958  19.7162
    19.8928  20.3171  20.4881  20.7749  24.4644  25.4457

          k = 0.1667 0.2887-0.6124 (  6098 PWs)   bands (ev):

   -74.9737 -74.9737 -66.6331 -38.3371 -38.3354 -38.3207 -38.3204 -38.3047
   -38.3046 -32.7584 -32.7580 -32.7571  -2.2809  -2.2778  -2.2586  -2.2274
    -2.2116  10.3399  12.9696  14.1190  15.2946  16.3110  17.0840  17.1032
    17.4066  17.6919  17.9259  17.9427  18.3212  19.5264  19.5622  19.6641
    19.8324  19.8813  20.3689  20.4151  24.6374  25.5898

          k = 0.1667-0.6736 0.1361 (  6118 PWs)   bands (ev):

   -74.9743 -74.9732 -66.6331 -38.3304 -38.3290 -38.3287 -38.3122 -38.3120
   -38.3105 -32.7586 -32.7575 -32.7572  -2.2853  -2.2714  -2.2662  -2.2223
    -2.2133   9.8690  12.5222  14.9041  15.6300  16.4770  16.9766  17.0932
    17.3975  17.5271  18.0077  18.0235  18.3079  19.5556  19.5940  19.7483
    19.8500  19.8865  21.2721  21.5750  23.4393  25.7804

          k = 0.1667-0.6736 0.3402 (  6119 PWs)   bands (ev):

   -74.9747 -74.9728 -66.6331 -38.3349 -38.3220 -38.3216 -38.3193 -38.3188
   -38.3060 -32.7585 -32.7576 -32.7573  -2.2818  -2.2737  -2.2689  -2.2190
    -2.2176   9.5222  12.9660  14.8978  15.4839  16.5357  17.0326  17.1025
    17.3004  17.5241  17.9814  18.1822  18.2586  19.5530  19.7265  19.7477
    19.8598  20.1438  21.2273  22.1045  23.3621  25.7760

          k = 0.1667-0.6736 0.5443 (  6107 PWs)   bands (ev):

   -74.9748 -74.9727 -66.6331 -38.3373 -38.3309 -38.3282 -38.3129 -38.3097
   -38.3037 -32.7587 -32.7575 -32.7572  -2.2892  -2.2700  -2.2619  -2.2280
    -2.2123   9.6333  13.3623  14.7040  15.4411  16.4268  16.9670  17.0795
    17.2231  17.6771  17.8744  17.9942  18.4642  19.5573  19.5958  19.7162
    19.8928  20.3171  20.4881  20.7749  24.4644  25.4457

          k = 0.1667-0.6736-0.4763 (  6102 PWs)   bands (ev):

   -74.9747 -74.9728 -66.6331 -38.3374 -38.3353 -38.3350 -38.3060 -38.3059
   -38.3033 -32.7591 -32.7573 -32.7570  -2.2983  -2.2606  -2.2579  -2.2346
    -2.2077  10.1648  12.9949  14.6656  15.8574  15.9986  16.9198  17.0540
    17.3257  17.6040  17.8166  17.9058  18.5429  19.4032  19.4902  19.6474
    19.8785  19.9564  20.1869  20.2288  23.4145  24.9756

          k = 0.1667-0.6736-0.2722 (  6090 PWs)   bands (ev):

   -74.9743 -74.9732 -66.6331 -38.3397 -38.3376 -38.3291 -38.3122 -38.3029
   -38.3014 -32.7589 -32.7576 -32.7570  -2.2932  -2.2672  -2.2543  -2.2339
    -2.2081  10.5531  13.0808  14.3594  14.8286  16.4183  17.0612  17.0884
    17.3058  17.6938  17.7987  17.9053  18.4799  19.4536  19.5399  19.6510
    19.7919  19.8941  19.9342  19.9721  24.3732  25.2864

          k = 0.1667-0.6736-0.0680 (  6098 PWs)   bands (ev):

   -74.9737 -74.9737 -66.6331 -38.3371 -38.3354 -38.3207 -38.3204 -38.3047
   -38.3046 -32.7584 -32.7580 -32.7571  -2.2809  -2.2778  -2.2586  -2.2274
    -2.2116  10.3399  12.9696  14.1190  15.2946  16.3110  17.0840  17.1032
    17.4066  17.6919  17.9259  17.9427  18.3212  19.5264  19.5622  19.6641
    19.8324  19.8813  20.3689  20.4151  24.6374  25.5898

          k = 0.3333-0.5774 0.0000 (  6111 PWs)   bands (ev):

   -74.9737 -74.9737 -66.6331 -38.3386 -38.3299 -38.3295 -38.3116 -38.3111
   -38.3022 -32.7584 -32.7579 -32.7571  -2.2859  -2.2699  -2.2613  -2.2272
    -2.2119  10.3305  13.3471  13.5262  15.7336  16.0426  16.9994  17.3524
    17.4010  17.5851  17.9325  18.0205  18.2263  19.4357  19.5985  19.6920
    19.8548  20.0688  20.1318  20.6771  23.4434  27.6469

          k = 0.3333-0.5774 0.2041 (  6098 PWs)   bands (ev):

   -74.9737 -74.9737 -66.6331 -38.3371 -38.3354 -38.3207 -38.3204 -38.3047
   -38.3046 -32.7584 -32.7580 -32.7571  -2.2809  -2.2778  -2.2586  -2.2274
    -2.2116  10.3399  12.9696  14.1190  15.2946  16.3110  17.0840  17.1032
    17.4066  17.6919  17.9260  17.9427  18.3212  19.5264  19.5622  19.6641
    19.8324  19.8813  20.3689  20.4151  24.6374  25.5898

     the Fermi energy is    19.3501 ev

!    total energy              =   -1524.77638030 Ry
     total all-electron energy =    -20474.057391 Ry
     estimated scf accuracy    <          4.1E-09 Ry
     smearing contrib. (-TS)   =      -0.00892445 Ry
     internal energy E=F+TS    =   -1524.76745585 Ry

     The total energy is F=E-TS. E is the sum of the following terms:
     one-electron contribution =    -441.53067595 Ry
     hartree contribution      =     270.95381052 Ry
     xc contribution           =    -137.83784755 Ry
     ewald contribution        =    -677.45861314 Ry
     one-center paw contrib.   =    -538.89412974 Ry

     total magnetization       =     5.34 Bohr mag/cell
     absolute magnetization    =     5.62 Bohr mag/cell

     convergence has been achieved in  28 iterations

     negative rho (up, down):  0.000E+00 1.007E-04

     Forces acting on atoms (cartesian axes, Ry/au):

     atom    1 type  2   force =     0.00000000    0.00000000    0.00000000
     atom    2 type  3   force =     0.00000000   -0.00000000    0.00000000
     atom    3 type  1   force =    -0.00000000    0.00000000    0.00000407
     atom    4 type  1   force =     0.00000000    0.00000000   -0.00000407

     Total force =     0.000006     Total SCF correction =     0.000025
     SCF correction compared to forces is large: reduce conv_thr to get better values


     Computing stress (Cartesian axis) and pressure


     negative rho (up, down):  0.000E+00 1.007E-04
          total   stress  (Ry/bohr**3)                   (kbar)     P=      149.54
   0.00101656   0.00000000   0.00000000          149.54        0.00        0.00
   0.00000000   0.00101656   0.00000000            0.00      149.54        0.00
   0.00000000  -0.00000000   0.00101653            0.00       -0.00      149.54


     Writing all to output data dir ./outdir/Co2FeSn.save/
 
     init_run     :      1.43s CPU      1.50s WALL (       1 calls)
     electrons    :     90.94s CPU     93.29s WALL (       1 calls)
     forces       :      0.40s CPU      0.41s WALL (       1 calls)
     stress       :      0.92s CPU      0.92s WALL (       1 calls)

     Called by init_run:
     wfcinit      :      0.92s CPU      0.95s WALL (       1 calls)
     potinit      :      0.19s CPU      0.21s WALL (       1 calls)
     hinit0       :      0.15s CPU      0.16s WALL (       1 calls)

     Called by electrons:
     c_bands      :     69.77s CPU     71.66s WALL (      28 calls)
     sum_band     :     14.14s CPU     14.51s WALL (      28 calls)
     v_of_rho     :      0.83s CPU      0.84s WALL (      29 calls)
     newd         :      2.06s CPU      2.08s WALL (      29 calls)
     PAW_pot      :      4.14s CPU      4.16s WALL (      29 calls)
     mix_rho      :      0.13s CPU      0.13s WALL (      28 calls)

     Called by c_bands:
     init_us_2    :      0.72s CPU      0.76s WALL (    3776 calls)
     init_us_2:cp :      0.71s CPU      0.75s WALL (    3776 calls)
     cegterg      :     66.70s CPU     68.45s WALL (    1792 calls)

     Called by *egterg:
     cdiaghg      :     11.39s CPU     11.46s WALL (    6790 calls)
     h_psi        :     46.10s CPU     47.73s WALL (    6854 calls)
     s_psi        :      1.78s CPU      1.80s WALL (    6854 calls)
     g_psi        :      0.21s CPU      0.22s WALL (    4998 calls)

     Called by h_psi:
     h_psi:calbec :      2.51s CPU      2.60s WALL (    6854 calls)
     vloc_psi     :     41.21s CPU     42.71s WALL (    6854 calls)
     add_vuspsi   :      2.06s CPU      2.10s WALL (    6854 calls)

     General routines
     calbec       :      3.46s CPU      3.59s WALL (    8966 calls)
     fft          :      0.32s CPU      0.33s WALL (     763 calls)
     ffts         :      0.02s CPU      0.02s WALL (     114 calls)
     fftw         :     45.71s CPU     47.42s WALL (  390404 calls)
     interpolate  :      0.04s CPU      0.05s WALL (      58 calls)
 
     Parallel routines
 
     PWSCF        :   1m34.66s CPU   1m37.70s WALL

 
   This run was terminated on:  23:35:18   8Oct2025            

=------------------------------------------------------------------------------=
   JOB DONE.
=------------------------------------------------------------------------------=
