
     Program PWSCF v.7.1 starts on  8Oct2025 at 23:35:19 

     This program is part of the open-source Quantum ESPRESSO suite
     for quantum simulation of materials; please cite
         "P. Giannozzi et al., J. Phys.:Condens. Matter 21 395502 (2009);
         "P. Giannozzi et al., J. Phys.:Condens. Matter 29 465901 (2017);
         "P. Giannozzi et al., J. Chem. Phys. 152 154105 (2020);
          URL http://www.quantum-espresso.org", 
     in publications or presentations arising from this work. More details at
     http://www.quantum-espresso.org/quote

     Parallel version (MPI), running on    20 processors

     MPI processes distributed on     1 nodes
     60550 MiB available memory on the printing compute node when the environment starts
 
     Reading input from Co2FeSn_110.in

     Current dimensions of program PWSCF are:
     Max number of different atomic species (ntypx) = 10
     Max number of k-points (npk) =  40000
     Max angular momentum in pseudopotentials (lmaxx) =  4
     file Co.pbe-spn-kjpaw_psl.0.3.1.UPF: wavefunction(s)  3P 3D renormalized
     file Fe.pbe-spn-kjpaw_psl.1.0.0.UPF: wavefunction(s)  3P 3D renormalized
     file Sn.pbe-dn-kjpaw_psl.1.0.0.UPF: wavefunction(s)  5S 5P 4D renormalized
 
     R & G space division:  proc/nbgrp/npool/nimage =      20
     Subspace diagonalization in iterative solution of the eigenvalue problem:
     a serial algorithm will be used

 
     Parallelization info
     --------------------
     sticks:   dense  smooth     PW     G-vecs:    dense   smooth      PW
     Min         183      92     25                 7403     2616     389
     Max         184      93     26                 7408     2618     393
     Sum        3679    1843    517               148117    52345    7823
 
     Using Slab Decomposition
 


     bravais-lattice index     =           14
     lattice parameter (alat)  =       7.8036  a.u.
     unit-cell volume          =     336.0264 (a.u.)^3
     number of atoms/cell      =            4
     number of atomic types    =            3
     number of electrons       =        64.00
     number of Kohn-Sham states=           38
     kinetic-energy cutoff     =     110.0000  Ry
     charge density cutoff     =     880.0000  Ry
     scf convergence threshold =      1.0E-08
     mixing beta               =       0.2000
     number of iterations used =            8  plain     mixing
     Exchange-correlation= SLA  PW   PBX  PBC
                           (   1   4   3   4   0   0   0)

     celldm(1)=   7.803620  celldm(2)=   1.000000  celldm(3)=   1.000000
     celldm(4)=   0.500000  celldm(5)=   0.500000  celldm(6)=   0.500000

     crystal axes: (cart. coord. in units of alat)
               a(1) = (   1.000000   0.000000   0.000000 )  
               a(2) = (   0.500000   0.866025   0.000000 )  
               a(3) = (   0.500000   0.288675   0.816497 )  

     reciprocal axes: (cart. coord. in units 2 pi/alat)
               b(1) = (  1.000000 -0.577350 -0.408248 )  
               b(2) = (  0.000000  1.154701 -0.408248 )  
               b(3) = (  0.000000  0.000000  1.224745 )  


     PseudoPot. # 1 for Co read from file:
     <HPC_PATH>
     MD5 check sum: 3c0a43779828c046024e4f3be63f8e67
     Pseudo is Projector augmented-wave + core cor, Zval = 17.0
     Generated using &quot;atomic&quot; code by A. Dal Corso  v.6.2.2
     Shape of augmentation charge: PSQ
     Using radial grid of 1193 points,  6 beta functions with: 
                l(1) =   0
                l(2) =   0
                l(3) =   1
                l(4) =   1
                l(5) =   2
                l(6) =   2
     Q(r) pseudized with 0 coefficients 


     PseudoPot. # 2 for Fe read from file:
     <HPC_PATH>
     MD5 check sum: fc81f059e5c5069939230b1155715ae8
     Pseudo is Projector augmented-wave + core cor, Zval = 16.0
     Generated using &quot;atomic&quot; code by A. Dal Corso  v.6.3
     Shape of augmentation charge: PSQ
     Using radial grid of 1191 points,  6 beta functions with: 
                l(1) =   0
                l(2) =   0
                l(3) =   1
                l(4) =   1
                l(5) =   2
                l(6) =   2
     Q(r) pseudized with 0 coefficients 


     PseudoPot. # 3 for Sn read from file:
     <HPC_PATH>
     MD5 check sum: 67f11dec737d427557dc41ea34975807
     Pseudo is Projector augmented-wave + core cor, Zval = 14.0
     Generated using &quot;atomic&quot; code by A. Dal Corso  v.6.3
     Shape of augmentation charge: PSQ
     Using radial grid of 1243 points,  6 beta functions with: 
                l(1) =   0
                l(2) =   0
                l(3) =   1
                l(4) =   1
                l(5) =   2
                l(6) =   2
     Q(r) pseudized with 0 coefficients 


     atomic species   valence    mass     pseudopotential
        Co            17.00    58.93300     Co( 1.00)
        Fe            16.00    55.84500     Fe( 1.00)
        Sn            14.00   118.71000     Sn( 1.00)

     Starting magnetic structure 
     atomic species   magnetization
        Co           0.500
        Fe           0.500
        Sn           0.000

     12 Sym. Ops., with inversion, found



   Cartesian axes

     site n.     atom                  positions (alat units)
         1           Fe  tau(   1) = (   1.0000000   0.5773503   0.4082483  )
         2           Sn  tau(   2) = (   0.0000000   0.0000000   0.0000000  )
         3           Co  tau(   3) = (   0.5000000   0.2886751   0.2041241  )
         4           Co  tau(   4) = (   1.5000000   0.8660254   0.6123724  )

     number of k points=    32  Gaussian smearing, width (Ry)=  0.0200
                       cart. coord. in units 2pi/alat
        k(    1) = (   0.0000000   0.0000000   0.0000000), wk =   0.0046296
        k(    2) = (   0.0000000   0.0000000   0.2041241), wk =   0.0092593
        k(    3) = (   0.0000000   0.0000000   0.4082483), wk =   0.0092593
        k(    4) = (   0.0000000   0.0000000  -0.6123724), wk =   0.0046296
        k(    5) = (   0.0000000   0.1924501  -0.0680414), wk =   0.0277778
        k(    6) = (   0.0000000   0.1924501   0.1360828), wk =   0.0277778
        k(    7) = (   0.0000000   0.1924501   0.3402069), wk =   0.0277778
        k(    8) = (   0.0000000   0.1924501  -0.6804138), wk =   0.0277778
        k(    9) = (   0.0000000   0.1924501  -0.4762897), wk =   0.0277778
        k(   10) = (   0.0000000   0.1924501  -0.2721655), wk =   0.0277778
        k(   11) = (   0.0000000   0.3849002  -0.1360828), wk =   0.0277778
        k(   12) = (   0.0000000   0.3849002   0.0680414), wk =   0.0277778
        k(   13) = (   0.0000000   0.3849002   0.2721655), wk =   0.0277778
        k(   14) = (   0.0000000   0.3849002  -0.7484552), wk =   0.0277778
        k(   15) = (   0.0000000   0.3849002  -0.5443311), wk =   0.0277778
        k(   16) = (   0.0000000   0.3849002  -0.3402069), wk =   0.0277778
        k(   17) = (   0.0000000  -0.5773503   0.2041241), wk =   0.0138889
        k(   18) = (   0.0000000  -0.5773503   0.4082483), wk =   0.0277778
        k(   19) = (   0.0000000  -0.5773503   0.6123724), wk =   0.0277778
        k(   20) = (   0.0000000  -0.5773503  -0.4082483), wk =   0.0138889
        k(   21) = (   0.1666667   0.2886751  -0.2041241), wk =   0.0555556
        k(   22) = (   0.1666667   0.2886751  -0.0000000), wk =   0.0277778
        k(   23) = (   0.1666667   0.2886751  -0.8164966), wk =   0.0555556
        k(   24) = (   0.1666667   0.2886751  -0.6123724), wk =   0.0277778
        k(   25) = (   0.1666667  -0.6735753   0.1360828), wk =   0.0555556
        k(   26) = (   0.1666667  -0.6735753   0.3402069), wk =   0.0555556
        k(   27) = (   0.1666667  -0.6735753   0.5443311), wk =   0.0555556
        k(   28) = (   0.1666667  -0.6735753  -0.4762897), wk =   0.0555556
        k(   29) = (   0.1666667  -0.6735753  -0.2721655), wk =   0.0555556
        k(   30) = (   0.1666667  -0.6735753  -0.0680414), wk =   0.0555556
        k(   31) = (   0.3333333  -0.5773503   0.0000000), wk =   0.0277778
        k(   32) = (   0.3333333  -0.5773503   0.2041241), wk =   0.0277778

     Dense  grid:   148117 G-vectors     FFT dimensions: (  75,  75,  75)

     Smooth grid:    52345 G-vectors     FFT dimensions: (  54,  54,  54)

     Estimated max dynamical RAM per process >      50.86 MB

     Estimated total dynamical RAM >    1017.27 MB

     Check: negative core charge=   -0.000010
     Generating pointlists ...
     new r_m :   0.2526 (alat units)  1.9712 (a.u.) for type    1
     new r_m :   0.2526 (alat units)  1.9712 (a.u.) for type    2
     new r_m :   0.2526 (alat units)  1.9712 (a.u.) for type    3

     Initial potential from superposition of free atoms

     starting charge      63.9976, renormalised to      64.0000
     Starting wfcs are   39 randomized atomic wfcs
     Checking if some PAW data can be deallocated... 

     total cpu time spent up to now is        1.9 secs

     per-process dynamical memory:    94.6 Mb

     Self-consistent Calculation

     iteration #  1     ecut=   110.00 Ry     beta= 0.20
     Davidson diagonalization with overlap
     ethr =  1.00E-02,  avg # of iterations =  4.5

     total cpu time spent up to now is        5.8 secs

     total energy              =   -1523.36169593 Ry
     estimated scf accuracy    <       2.82067031 Ry

     total magnetization       =     8.05 Bohr mag/cell
     absolute magnetization    =     8.55 Bohr mag/cell

     iteration #  2     ecut=   110.00 Ry     beta= 0.20
     Davidson diagonalization with overlap
     ethr =  4.41E-03,  avg # of iterations =  1.8

     negative rho (up, down):  0.000E+00 3.022E-06

     total cpu time spent up to now is        8.8 secs

     total energy              =   -1524.26452015 Ry
     estimated scf accuracy    <       2.01026616 Ry

     total magnetization       =     7.47 Bohr mag/cell
     absolute magnetization    =     8.27 Bohr mag/cell

     iteration #  3     ecut=   110.00 Ry     beta= 0.20
     Davidson diagonalization with overlap
     ethr =  3.14E-03,  avg # of iterations =  1.5

     negative rho (up, down):  0.000E+00 4.123E-04

     total cpu time spent up to now is       11.7 secs

     total energy              =   -1524.52865695 Ry
     estimated scf accuracy    <       2.27594507 Ry

     total magnetization       =     6.96 Bohr mag/cell
     absolute magnetization    =     7.73 Bohr mag/cell

     iteration #  4     ecut=   110.00 Ry     beta= 0.20
     Davidson diagonalization with overlap
     ethr =  3.14E-03,  avg # of iterations =  1.0

     negative rho (up, down):  0.000E+00 4.097E-04

     total cpu time spent up to now is       14.6 secs

     total energy              =   -1524.74614077 Ry
     estimated scf accuracy    <       0.08548217 Ry

     total magnetization       =     5.55 Bohr mag/cell
     absolute magnetization    =     6.41 Bohr mag/cell

     iteration #  5     ecut=   110.00 Ry     beta= 0.20
     Davidson diagonalization with overlap
     ethr =  1.34E-04,  avg # of iterations =  5.4

     negative rho (up, down):  0.000E+00 3.718E-04

     total cpu time spent up to now is       18.8 secs

     total energy              =   -1524.76237657 Ry
     estimated scf accuracy    <       0.03532854 Ry

     total magnetization       =     5.49 Bohr mag/cell
     absolute magnetization    =     6.09 Bohr mag/cell

     iteration #  6     ecut=   110.00 Ry     beta= 0.20
     Davidson diagonalization with overlap
     ethr =  5.52E-05,  avg # of iterations =  3.4

     negative rho (up, down):  0.000E+00 3.030E-04

     total cpu time spent up to now is       22.5 secs

     total energy              =   -1524.76971319 Ry
     estimated scf accuracy    <       0.00892595 Ry

     total magnetization       =     5.28 Bohr mag/cell
     absolute magnetization    =     5.76 Bohr mag/cell

     iteration #  7     ecut=   110.00 Ry     beta= 0.20
     Davidson diagonalization with overlap
     ethr =  1.39E-05,  avg # of iterations =  4.6

     negative rho (up, down):  0.000E+00 2.218E-04

     total cpu time spent up to now is       26.4 secs

     total energy              =   -1524.77498700 Ry
     estimated scf accuracy    <       0.02672647 Ry

     total magnetization       =     5.44 Bohr mag/cell
     absolute magnetization    =     5.88 Bohr mag/cell

     iteration #  8     ecut=   110.00 Ry     beta= 0.20
     Davidson diagonalization with overlap
     ethr =  1.39E-05,  avg # of iterations =  2.1

     negative rho (up, down):  0.000E+00 1.841E-04

     total cpu time spent up to now is       29.5 secs

     total energy              =   -1524.77488586 Ry
     estimated scf accuracy    <       0.00802467 Ry

     total magnetization       =     5.34 Bohr mag/cell
     absolute magnetization    =     5.74 Bohr mag/cell

     iteration #  9     ecut=   110.00 Ry     beta= 0.20
     Davidson diagonalization with overlap
     ethr =  1.25E-05,  avg # of iterations =  3.0

     negative rho (up, down):  0.000E+00 1.663E-04

     total cpu time spent up to now is       32.9 secs

     total energy              =   -1524.77586297 Ry
     estimated scf accuracy    <       0.00309259 Ry

     total magnetization       =     5.37 Bohr mag/cell
     absolute magnetization    =     5.71 Bohr mag/cell

     iteration # 10     ecut=   110.00 Ry     beta= 0.20
     Davidson diagonalization with overlap
     ethr =  4.83E-06,  avg # of iterations =  2.9

     negative rho (up, down):  0.000E+00 1.669E-04

     total cpu time spent up to now is       36.2 secs

     total energy              =   -1524.77634545 Ry
     estimated scf accuracy    <       0.00124994 Ry

     total magnetization       =     5.38 Bohr mag/cell
     absolute magnetization    =     5.71 Bohr mag/cell

     iteration # 11     ecut=   110.00 Ry     beta= 0.20
     Davidson diagonalization with overlap
     c_bands:  1 eigenvalues not converged
     ethr =  1.95E-06,  avg # of iterations =  2.7

     negative rho (up, down):  0.000E+00 1.577E-04

     total cpu time spent up to now is       39.4 secs

     total energy              =   -1524.77643875 Ry
     estimated scf accuracy    <       0.00197935 Ry

     total magnetization       =     5.38 Bohr mag/cell
     absolute magnetization    =     5.71 Bohr mag/cell

     iteration # 12     ecut=   110.00 Ry     beta= 0.20
     Davidson diagonalization with overlap
     ethr =  1.95E-06,  avg # of iterations =  2.1

     negative rho (up, down):  0.000E+00 1.523E-04

     total cpu time spent up to now is       42.5 secs

     total energy              =   -1524.77658345 Ry
     estimated scf accuracy    <       0.00094008 Ry

     total magnetization       =     5.33 Bohr mag/cell
     absolute magnetization    =     5.64 Bohr mag/cell

     iteration # 13     ecut=   110.00 Ry     beta= 0.20
     Davidson diagonalization with overlap
     ethr =  1.47E-06,  avg # of iterations =  2.0

     negative rho (up, down):  0.000E+00 1.514E-04

     total cpu time spent up to now is       45.6 secs

     total energy              =   -1524.77662615 Ry
     estimated scf accuracy    <       0.00043914 Ry

     total magnetization       =     5.33 Bohr mag/cell
     absolute magnetization    =     5.63 Bohr mag/cell

     iteration # 14     ecut=   110.00 Ry     beta= 0.20
     Davidson diagonalization with overlap
     ethr =  6.86E-07,  avg # of iterations =  2.0

     negative rho (up, down):  0.000E+00 1.562E-04

     total cpu time spent up to now is       48.6 secs

     total energy              =   -1524.77663276 Ry
     estimated scf accuracy    <       0.00028190 Ry

     total magnetization       =     5.34 Bohr mag/cell
     absolute magnetization    =     5.63 Bohr mag/cell

     iteration # 15     ecut=   110.00 Ry     beta= 0.20
     Davidson diagonalization with overlap
     ethr =  4.40E-07,  avg # of iterations =  1.6

     negative rho (up, down):  0.000E+00 1.590E-04

     total cpu time spent up to now is       51.6 secs

     total energy              =   -1524.77663113 Ry
     estimated scf accuracy    <       0.00017352 Ry

     total magnetization       =     5.35 Bohr mag/cell
     absolute magnetization    =     5.64 Bohr mag/cell

     iteration # 16     ecut=   110.00 Ry     beta= 0.20
     Davidson diagonalization with overlap
     ethr =  2.71E-07,  avg # of iterations =  1.9

     negative rho (up, down):  0.000E+00 1.611E-04

     total cpu time spent up to now is       54.6 secs

     total energy              =   -1524.77663972 Ry
     estimated scf accuracy    <       0.00004437 Ry

     total magnetization       =     5.35 Bohr mag/cell
     absolute magnetization    =     5.63 Bohr mag/cell

     iteration # 17     ecut=   110.00 Ry     beta= 0.20
     Davidson diagonalization with overlap
     ethr =  6.93E-08,  avg # of iterations =  4.3

     negative rho (up, down):  0.000E+00 1.616E-04

     total cpu time spent up to now is       59.0 secs

     total energy              =   -1524.77664608 Ry
     estimated scf accuracy    <       0.00001189 Ry

     total magnetization       =     5.35 Bohr mag/cell
     absolute magnetization    =     5.63 Bohr mag/cell

     iteration # 18     ecut=   110.00 Ry     beta= 0.20
     Davidson diagonalization with overlap
     ethr =  1.86E-08,  avg # of iterations =  4.2

     negative rho (up, down):  0.000E+00 1.614E-04

     total cpu time spent up to now is       62.5 secs

     total energy              =   -1524.77664807 Ry
     estimated scf accuracy    <       0.00000519 Ry

     total magnetization       =     5.35 Bohr mag/cell
     absolute magnetization    =     5.63 Bohr mag/cell

     iteration # 19     ecut=   110.00 Ry     beta= 0.20
     Davidson diagonalization with overlap
     ethr =  8.11E-09,  avg # of iterations =  4.1

     negative rho (up, down):  0.000E+00 1.621E-04

     total cpu time spent up to now is       66.0 secs

     total energy              =   -1524.77664883 Ry
     estimated scf accuracy    <       0.00000548 Ry

     total magnetization       =     5.35 Bohr mag/cell
     absolute magnetization    =     5.63 Bohr mag/cell

     iteration # 20     ecut=   110.00 Ry     beta= 0.20
     Davidson diagonalization with overlap
     ethr =  8.11E-09,  avg # of iterations =  2.2

     negative rho (up, down):  0.000E+00 1.648E-04

     total cpu time spent up to now is       69.2 secs

     total energy              =   -1524.77664904 Ry
     estimated scf accuracy    <       0.00000210 Ry

     total magnetization       =     5.34 Bohr mag/cell
     absolute magnetization    =     5.63 Bohr mag/cell

     iteration # 21     ecut=   110.00 Ry     beta= 0.20
     Davidson diagonalization with overlap
     ethr =  3.29E-09,  avg # of iterations =  3.9

     negative rho (up, down):  0.000E+00 1.647E-04

     total cpu time spent up to now is       73.1 secs

     total energy              =   -1524.77664973 Ry
     estimated scf accuracy    <       0.00000047 Ry

     total magnetization       =     5.34 Bohr mag/cell
     absolute magnetization    =     5.63 Bohr mag/cell

     iteration # 22     ecut=   110.00 Ry     beta= 0.20
     Davidson diagonalization with overlap
     ethr =  7.32E-10,  avg # of iterations =  3.7

     negative rho (up, down):  0.000E+00 1.644E-04

     total cpu time spent up to now is       76.7 secs

     total energy              =   -1524.77664983 Ry
     estimated scf accuracy    <       0.00000002 Ry

     total magnetization       =     5.34 Bohr mag/cell
     absolute magnetization    =     5.63 Bohr mag/cell

     iteration # 23     ecut=   110.00 Ry     beta= 0.20
     Davidson diagonalization with overlap
     ethr =  3.81E-11,  avg # of iterations =  8.7

     negative rho (up, down):  0.000E+00 1.645E-04

     total cpu time spent up to now is       83.2 secs

     total energy              =   -1524.77664984 Ry
     estimated scf accuracy    <       0.00000018 Ry

     total magnetization       =     5.34 Bohr mag/cell
     absolute magnetization    =     5.63 Bohr mag/cell

     iteration # 24     ecut=   110.00 Ry     beta= 0.20
     Davidson diagonalization with overlap
     c_bands:  1 eigenvalues not converged
     ethr =  3.81E-11,  avg # of iterations =  4.9

     negative rho (up, down):  0.000E+00 1.643E-04

     total cpu time spent up to now is       88.0 secs

     total energy              =   -1524.77664988 Ry
     estimated scf accuracy    <       0.00000001 Ry

     total magnetization       =     5.34 Bohr mag/cell
     absolute magnetization    =     5.62 Bohr mag/cell

     iteration # 25     ecut=   110.00 Ry     beta= 0.20
     Davidson diagonalization with overlap
     ethr =  1.58E-11,  avg # of iterations =  5.0

     negative rho (up, down):  0.000E+00 1.642E-04

     total cpu time spent up to now is       92.8 secs

     total energy              =   -1524.77664986 Ry
     estimated scf accuracy    <       0.00000008 Ry

     total magnetization       =     5.34 Bohr mag/cell
     absolute magnetization    =     5.62 Bohr mag/cell

     iteration # 26     ecut=   110.00 Ry     beta= 0.20
     Davidson diagonalization with overlap
     ethr =  1.58E-11,  avg # of iterations =  5.4

     negative rho (up, down):  0.000E+00 1.643E-04

     total cpu time spent up to now is       97.9 secs

     total energy              =   -1524.77664988 Ry
     estimated scf accuracy    <       0.00000001 Ry

     total magnetization       =     5.34 Bohr mag/cell
     absolute magnetization    =     5.62 Bohr mag/cell

     iteration # 27     ecut=   110.00 Ry     beta= 0.20
     Davidson diagonalization with overlap
     ethr =  1.58E-11,  avg # of iterations =  2.3

     negative rho (up, down):  0.000E+00 1.643E-04
 
     Magnetic moment per site  (integrated on atomic sphere of radius R)
     atom   1 (R=0.253)  charge= 14.4759  magn=  2.8201
     atom   2 (R=0.253)  charge= 11.1695  magn= -0.0081
     atom   3 (R=0.253)  charge= 15.7978  magn=  1.2986
     atom   4 (R=0.253)  charge= 15.7978  magn=  1.2986

     total cpu time spent up to now is      101.1 secs

     End of self-consistent calculation

 ------ SPIN UP ------------


          k = 0.0000 0.0000 0.0000 (  6567 PWs)   bands (ev):

   -76.5288 -76.5227 -69.8828 -39.8392 -39.8392 -39.8392 -39.8149 -39.8148
   -39.8148 -35.9297 -35.9297 -35.9297  -2.2805  -2.2805  -2.2805  -2.2209
    -2.2209   7.3704  14.7411  14.7411  14.9328  14.9328  14.9328  15.6493
    15.6493  15.6493  17.2164  17.2164  17.7746  17.7746  17.8427  17.8427
    17.8428  22.9789  23.2618  23.2618  23.2618  24.2606

          k = 0.0000 0.0000 0.2041 (  6531 PWs)   bands (ev):

   -76.5284 -76.5231 -69.8828 -39.8379 -39.8376 -39.8376 -39.8165 -39.8165
   -39.8163 -35.9299 -35.9296 -35.9296  -2.2812  -2.2773  -2.2773  -2.2183
    -2.2183   7.7429  14.4887  14.4887  14.5052  15.3568  15.3568  15.5658
    15.6339  15.6339  17.1846  17.1846  17.4856  17.5541  17.5541  17.8813
    17.8813  20.8517  22.6829  22.6829  23.1144  24.4252

          k = 0.0000 0.0000 0.4082 (  6549 PWs)   bands (ev):

   -76.5272 -76.5242 -69.8829 -39.8338 -39.8333 -39.8333 -39.8211 -39.8211
   -39.8207 -35.9304 -35.9294 -35.9294  -2.2829  -2.2716  -2.2716  -2.2121
    -2.2121   8.7815  13.0907  14.3527  14.3527  15.4681  15.4940  15.4940
    16.0126  16.0126  17.0702  17.0702  17.1440  17.3076  17.3076  17.7554
    17.7554  18.8919  22.2827  22.2827  22.8656  23.5719

          k = 0.0000 0.0000-0.6124 (  6550 PWs)   bands (ev):

   -76.5257 -76.5257 -69.8829 -39.8280 -39.8280 -39.8279 -39.8267 -39.8265
   -39.8265 -35.9307 -35.9293 -35.9293  -2.2839  -2.2693  -2.2693  -2.2085
    -2.2085   9.7743  11.8186  14.3239  14.3239  15.4810  15.4810  15.5199
    16.2881  16.2881  16.9844  16.9844  17.1594  17.2495  17.2495  17.6164
    17.6164  18.0163  22.2717  22.2717  22.8138  23.0471

          k = 0.0000 0.1925-0.0680 (  6531 PWs)   bands (ev):

   -76.5284 -76.5231 -69.8828 -39.8379 -39.8376 -39.8376 -39.8166 -39.8165
   -39.8163 -35.9299 -35.9296 -35.9296  -2.2812  -2.2773  -2.2773  -2.2183
    -2.2183   7.7429  14.4887  14.4887  14.5052  15.3568  15.3568  15.5658
    15.6339  15.6339  17.1846  17.1846  17.4855  17.5541  17.5541  17.8813
    17.8813  20.8517  22.6829  22.6829  23.1144  24.4252

          k = 0.0000 0.1925 0.1361 (  6527 PWs)   bands (ev):

   -76.5283 -76.5232 -69.8828 -39.8403 -39.8403 -39.8317 -39.8224 -39.8141
   -39.8141 -35.9302 -35.9295 -35.9295  -2.2865  -2.2735  -2.2735  -2.2211
    -2.2150   7.8644  13.9076  14.9012  15.1045  15.1045  15.3193  15.3998
    15.6908  15.6908  17.0537  17.2603  17.4511  17.5089  17.5089  17.7665
    17.9260  21.3581  21.3702  21.3702  23.4250  23.4959

          k = 0.0000 0.1925 0.3402 (  6529 PWs)   bands (ev):

   -76.5274 -76.5239 -69.8829 -39.8394 -39.8394 -39.8295 -39.8246 -39.8152
   -39.8151 -35.9305 -35.9294 -35.9293  -2.2884  -2.2690  -2.2673  -2.2198
    -2.2090   8.6737  13.3311  14.5423  14.7549  15.2849  15.4723  15.6272
    15.8164  15.9073  16.8874  17.0839  17.2329  17.2464  17.3231  17.7157
    17.8958  19.3871  20.5324  20.5390  22.8874  24.6628

          k = 0.0000 0.1925-0.6804 (  6545 PWs)   bands (ev):

   -76.5262 -76.5252 -69.8829 -39.8365 -39.8353 -39.8348 -39.8198 -39.8194
   -39.8181 -35.9305 -35.9295 -35.9292  -2.2839  -2.2700  -2.2648  -2.2152
    -2.2062   9.8011  12.2978  14.0490  14.5467  15.3364  15.4766  15.5895
    16.2560  16.3320  16.8069  16.8184  17.0872  17.1673  17.3617  17.6941
    17.7047  18.1241  19.9823  20.4050  22.7203  25.3039

          k = 0.0000 0.1925-0.4763 (  6552 PWs)   bands (ev):

   -76.5266 -76.5248 -69.8829 -39.8407 -39.8289 -39.8282 -39.8264 -39.8257
   -39.8139 -35.9304 -35.9296 -35.9293  -2.2804  -2.2722  -2.2677  -2.2121
    -2.2103   9.4568  12.6975  14.1957  14.3458  15.2843  15.4434  15.6529
    16.1683  16.2704  16.7558  16.9062  17.0320  17.2234  17.2385  17.6935
    17.9415  18.4619  19.8729  21.0567  22.8080  25.0203

          k = 0.0000 0.1925-0.2722 (  6545 PWs)   bands (ev):

   -76.5277 -76.5237 -69.8828 -39.8411 -39.8330 -39.8323 -39.8220 -39.8214
   -39.8133 -35.9302 -35.9295 -35.9295  -2.2822  -2.2739  -2.2724  -2.2164
    -2.2139   8.3373  13.7707  14.2815  14.8928  15.1449  15.5108  15.5134
    15.7723  15.8242  16.9910  17.2353  17.2415  17.2688  17.3442  17.7067
    18.0202  20.1580  20.2253  22.2953  23.1708  25.1634

          k = 0.0000 0.3849-0.1361 (  6549 PWs)   bands (ev):

   -76.5272 -76.5242 -69.8829 -39.8338 -39.8333 -39.8333 -39.8211 -39.8211
   -39.8207 -35.9304 -35.9294 -35.9294  -2.2829  -2.2716  -2.2716  -2.2121
    -2.2121   8.7815  13.0907  14.3527  14.3527  15.4681  15.4940  15.4940
    16.0126  16.0126  17.0702  17.0702  17.1440  17.3076  17.3076  17.7554
    17.7554  18.8919  22.2827  22.2827  22.8656  23.5719

          k = 0.0000 0.3849 0.0680 (  6529 PWs)   bands (ev):

   -76.5274 -76.5239 -69.8829 -39.8394 -39.8394 -39.8295 -39.8246 -39.8152
   -39.8151 -35.9305 -35.9294 -35.9293  -2.2884  -2.2690  -2.2673  -2.2198
    -2.2090   8.6737  13.3311  14.5423  14.7549  15.2849  15.4723  15.6272
    15.8164  15.9073  16.8874  17.0839  17.2329  17.2464  17.3231  17.7157
    17.8958  19.3871  20.5323  20.5390  22.8874  24.6628

          k = 0.0000 0.3849 0.2722 (  6534 PWs)   bands (ev):

   -76.5272 -76.5242 -69.8829 -39.8424 -39.8424 -39.8373 -39.8166 -39.8125
   -39.8125 -35.9311 -35.9290 -35.9290  -2.2986  -2.2598  -2.2598  -2.2273
    -2.2032   9.1912  12.9165  14.8314  15.3451  15.3923  15.4976  15.4976
    15.8659  15.8659  16.6032  17.0409  17.0409  17.1683  17.3065  17.7503
    17.7719  18.9567  19.2571  19.2571  22.3800  23.0234

          k = 0.0000 0.3849-0.7485 (  6543 PWs)   bands (ev):

   -76.5265 -76.5248 -69.8829 -39.8429 -39.8412 -39.8408 -39.8139 -39.8137
   -39.8114 -35.9311 -35.9292 -35.9290  -2.2969  -2.2594  -2.2567  -2.2275
    -2.2006  10.0447  12.6705  14.1254  15.0291  15.1728  15.5382  15.7545
    15.9666  16.1705  16.6900  16.8872  16.9606  17.0623  17.4115  17.6390
    17.8226  18.2114  18.4513  18.7363  22.5256  24.1167

          k = 0.0000 0.3849-0.5443 (  6557 PWs)   bands (ev):

   -76.5257 -76.5257 -69.8829 -39.8440 -39.8362 -39.8356 -39.8192 -39.8186
   -39.8104 -35.9304 -35.9298 -35.9291  -2.2845  -2.2687  -2.2602  -2.2202
    -2.2046  10.2192  13.0235  13.2404  14.6914  15.0290  15.4296  15.9106
    16.0724  16.5000  16.6273  16.7132  16.9452  17.0911  17.2307  17.9219
    18.0160  18.0595  18.4738  19.3487  22.5999  27.0607

          k = 0.0000 0.3849-0.3402 (  6552 PWs)   bands (ev):

   -76.5266 -76.5248 -69.8829 -39.8407 -39.8289 -39.8282 -39.8264 -39.8257
   -39.8139 -35.9304 -35.9296 -35.9293  -2.2804  -2.2722  -2.2677  -2.2121
    -2.2103   9.4568  12.6975  14.1957  14.3458  15.2843  15.4434  15.6529
    16.1683  16.2703  16.7558  16.9062  17.0320  17.2234  17.2385  17.6936
    17.9415  18.4619  19.8729  21.0567  22.8080  25.2268

          k = 0.0000-0.5774 0.2041 (  6550 PWs)   bands (ev):

   -76.5257 -76.5257 -69.8829 -39.8280 -39.8280 -39.8279 -39.8267 -39.8266
   -39.8265 -35.9307 -35.9293 -35.9293  -2.2839  -2.2693  -2.2693  -2.2085
    -2.2085   9.7743  11.8186  14.3239  14.3239  15.4811  15.4811  15.5199
    16.2881  16.2881  16.9844  16.9844  17.1594  17.2495  17.2495  17.6164
    17.6164  18.0163  22.2717  22.2717  22.8138  23.0471

          k = 0.0000-0.5774 0.4082 (  6545 PWs)   bands (ev):

   -76.5262 -76.5252 -69.8829 -39.8365 -39.8353 -39.8348 -39.8198 -39.8194
   -39.8181 -35.9305 -35.9295 -35.9292  -2.2839  -2.2700  -2.2648  -2.2152
    -2.2062   9.8011  12.2978  14.0490  14.5467  15.3364  15.4766  15.5895
    16.2560  16.3320  16.8069  16.8184  17.0872  17.1672  17.3617  17.6941
    17.7048  18.1241  19.9823  20.4049  22.7203  25.3039

          k = 0.0000-0.5774 0.6124 (  6543 PWs)   bands (ev):

   -76.5265 -76.5248 -69.8829 -39.8429 -39.8412 -39.8408 -39.8139 -39.8137
   -39.8114 -35.9311 -35.9292 -35.9290  -2.2969  -2.2594  -2.2567  -2.2275
    -2.2006  10.0447  12.6705  14.1254  15.0291  15.1728  15.5382  15.7545
    15.9667  16.1705  16.6900  16.8872  16.9606  17.0623  17.4115  17.6390
    17.8226  18.2114  18.4513  18.7363  22.5256  24.1167

          k = 0.0000-0.5774-0.4082 (  6526 PWs)   bands (ev):

   -76.5267 -76.5247 -69.8829 -39.8448 -39.8434 -39.8434 -39.8117 -39.8117
   -39.8090 -35.9315 -35.9288 -35.9288  -2.3048  -2.2531  -2.2531  -2.2332
    -2.1974  10.2871  12.4130  14.5419  14.8659  15.6766  15.6766  15.8905
    16.0365  16.0365  16.0537  16.9596  17.1516  17.1516  17.3650  17.6140
    17.7422  18.0602  18.0603  18.1872  22.2405  22.9183

          k = 0.1667 0.2887-0.2041 (  6529 PWs)   bands (ev):

   -76.5274 -76.5239 -69.8829 -39.8394 -39.8394 -39.8295 -39.8246 -39.8151
   -39.8151 -35.9305 -35.9294 -35.9293  -2.2884  -2.2690  -2.2673  -2.2198
    -2.2090   8.6737  13.3311  14.5423  14.7549  15.2849  15.4723  15.6272
    15.8164  15.9073  16.8874  17.0839  17.2329  17.2464  17.3231  17.7157
    17.8958  19.3871  20.5324  20.5390  22.8874  24.6628

          k = 0.1667 0.2887-0.0000 (  6545 PWs)   bands (ev):

   -76.5277 -76.5237 -69.8828 -39.8411 -39.8330 -39.8323 -39.8220 -39.8214
   -39.8133 -35.9302 -35.9295 -35.9295  -2.2822  -2.2739  -2.2724  -2.2164
    -2.2139   8.3373  13.7707  14.2815  14.8928  15.1449  15.5109  15.5134
    15.7723  15.8242  16.9910  17.2353  17.2415  17.2688  17.3442  17.7067
    18.0202  20.1580  20.2253  22.2953  23.1708  25.1639

          k = 0.1667 0.2887-0.8165 (  6564 PWs)   bands (ev):

   -76.5267 -76.5247 -69.8829 -39.8430 -39.8368 -39.8346 -39.8203 -39.8174
   -39.8118 -35.9306 -35.9295 -35.9291  -2.2878  -2.2687  -2.2607  -2.2209
    -2.2052   9.5531  12.9326  14.2004  14.5813  15.2102  15.5736  15.7714
    15.8576  16.2380  16.6766  16.8874  16.9687  17.2266  17.2628  17.7251
    17.9415  18.8053  18.9353  19.3861  23.9165  24.6882

          k = 0.1667 0.2887-0.6124 (  6554 PWs)   bands (ev):

   -76.5257 -76.5257 -69.8829 -39.8428 -39.8410 -39.8277 -39.8273 -39.8127
   -39.8126 -35.9303 -35.9300 -35.9290  -2.2796  -2.2765  -2.2574  -2.2204
    -2.2043  10.2288  12.7288  13.6176  14.5707  15.1362  15.5974  15.6464
    16.0761  16.5351  16.6113  16.6977  16.9719  17.1949  17.3652  17.7488
    17.8065  18.0790  18.7960  18.8610  24.1356  24.7493

          k = 0.1667-0.6736 0.1361 (  6545 PWs)   bands (ev):

   -76.5262 -76.5252 -69.8829 -39.8365 -39.8353 -39.8348 -39.8197 -39.8194
   -39.8181 -35.9305 -35.9295 -35.9292  -2.2839  -2.2700  -2.2648  -2.2152
    -2.2062   9.8011  12.2978  14.0490  14.5467  15.3364  15.4766  15.5895
    16.2560  16.3320  16.8069  16.8184  17.0872  17.1673  17.3617  17.6941
    17.7048  18.1241  19.9823  20.4049  22.7203  25.3039

          k = 0.1667-0.6736 0.3402 (  6552 PWs)   bands (ev):

   -76.5266 -76.5248 -69.8829 -39.8407 -39.8289 -39.8282 -39.8263 -39.8257
   -39.8139 -35.9304 -35.9296 -35.9293  -2.2804  -2.2722  -2.2677  -2.2121
    -2.2103   9.4568  12.6975  14.1957  14.3458  15.2843  15.4434  15.6529
    16.1683  16.2704  16.7558  16.9062  17.0320  17.2234  17.2385  17.6936
    17.9415  18.4619  19.8729  21.0567  22.8080  25.2228

          k = 0.1667-0.6736 0.5443 (  6564 PWs)   bands (ev):

   -76.5267 -76.5247 -69.8829 -39.8430 -39.8368 -39.8346 -39.8203 -39.8174
   -39.8118 -35.9306 -35.9295 -35.9291  -2.2878  -2.2687  -2.2607  -2.2209
    -2.2052   9.5531  12.9326  14.2004  14.5813  15.2102  15.5736  15.7714
    15.8576  16.2380  16.6766  16.8874  16.9687  17.2266  17.2628  17.7252
    17.9415  18.8053  18.9353  19.3861  23.9165  24.6882

          k = 0.1667-0.6736-0.4763 (  6543 PWs)   bands (ev):

   -76.5265 -76.5248 -69.8829 -39.8429 -39.8412 -39.8408 -39.8139 -39.8138
   -39.8114 -35.9311 -35.9292 -35.9290  -2.2969  -2.2594  -2.2567  -2.2275
    -2.2006  10.0447  12.6705  14.1254  15.0291  15.1728  15.5382  15.7545
    15.9667  16.1705  16.6900  16.8872  16.9606  17.0623  17.4115  17.6390
    17.8226  18.2114  18.4513  18.7363  22.5256  24.1167

          k = 0.1667-0.6736-0.2722 (  6574 PWs)   bands (ev):

   -76.5262 -76.5252 -69.8829 -39.8452 -39.8431 -39.8355 -39.8196 -39.8111
   -39.8097 -35.9309 -35.9295 -35.9289  -2.2919  -2.2660  -2.2531  -2.2268
    -2.2009  10.3940  12.8361  13.8600  14.4594  15.2993  15.5983  15.7023
    15.8951  16.2902  16.6783  16.7274  17.1214  17.2525  17.4656  17.4745
    17.8531  18.1041  18.1741  18.1947  23.6922  24.4340

          k = 0.1667-0.6736-0.0680 (  6554 PWs)   bands (ev):

   -76.5257 -76.5257 -69.8829 -39.8428 -39.8410 -39.8277 -39.8273 -39.8127
   -39.8126 -35.9303 -35.9300 -35.9290  -2.2796  -2.2765  -2.2574  -2.2204
    -2.2043  10.2288  12.7288  13.6176  14.5707  15.1362  15.5974  15.6464
    16.0761  16.5351  16.6112  16.6977  16.9719  17.1949  17.3652  17.7488
    17.8065  18.0790  18.7960  18.8610  24.1356  24.7493

          k = 0.3333-0.5774 0.0000 (  6557 PWs)   bands (ev):

   -76.5257 -76.5257 -69.8829 -39.8440 -39.8363 -39.8356 -39.8192 -39.8186
   -39.8104 -35.9304 -35.9298 -35.9291  -2.2845  -2.2687  -2.2602  -2.2202
    -2.2046  10.2192  13.0235  13.2404  14.6914  15.0290  15.4296  15.9106
    16.0724  16.5000  16.6273  16.7132  16.9452  17.0911  17.2307  17.9219
    18.0160  18.0596  18.4737  19.3487  22.5999  27.0607

          k = 0.3333-0.5774 0.2041 (  6554 PWs)   bands (ev):

   -76.5257 -76.5257 -69.8829 -39.8428 -39.8410 -39.8277 -39.8273 -39.8127
   -39.8126 -35.9303 -35.9300 -35.9290  -2.2796  -2.2765  -2.2574  -2.2204
    -2.2043  10.2288  12.7288  13.6176  14.5707  15.1362  15.5974  15.6464
    16.0761  16.5351  16.6113  16.6977  16.9719  17.1949  17.3652  17.7488
    17.8065  18.0790  18.7960  18.8610  24.1355  24.7493

 ------ SPIN DOWN ----------


          k = 0.0000 0.0000 0.0000 (  6567 PWs)   bands (ev):

   -74.9771 -74.9705 -66.6331 -38.3336 -38.3336 -38.3336 -38.3070 -38.3070
   -38.3070 -32.7577 -32.7577 -32.7577  -2.2818  -2.2818  -2.2818  -2.2274
    -2.2274   7.4379  15.5034  15.5034  15.5034  16.4372  16.4372  17.3971
    17.3971  17.3971  18.9926  18.9926  18.9926  19.6311  19.6311  20.0910
    20.0910  23.3116  23.6490  23.6490  23.6490  25.0313

          k = 0.0000 0.0000 0.2041 (  6531 PWs)   bands (ev):

   -74.9766 -74.9709 -66.6331 -38.3321 -38.3319 -38.3319 -38.3088 -38.3088
   -38.3087 -32.7580 -32.7576 -32.7576  -2.2826  -2.2786  -2.2786  -2.2250
    -2.2250   7.8091  14.9520  15.4761  15.4761  16.6251  16.6251  17.2342
    17.3411  17.3411  18.4732  18.7631  18.7631  19.6741  19.6741  20.0223
    20.0223  21.9825  23.4407  23.4407  23.4810  24.8627

          k = 0.0000 0.0000 0.4082 (  6549 PWs)   bands (ev):

   -74.9754 -74.9721 -66.6331 -38.3275 -38.3271 -38.3271 -38.3138 -38.3138
   -38.3136 -32.7586 -32.7575 -32.7575  -2.2844  -2.2730  -2.2730  -2.2191
    -2.2191   8.8427  13.3403  15.4653  15.4653  16.8966  16.9251  16.9251
    17.3174  17.3174  18.0704  18.3665  18.3665  19.6312  19.6312  19.9226
    19.9226  20.4868  23.1675  23.2935  23.2935  24.1527

          k = 0.0000 0.0000-0.6124 (  6550 PWs)   bands (ev):

   -74.9738 -74.9738 -66.6332 -38.3212 -38.3211 -38.3211 -38.3200 -38.3199
   -38.3199 -32.7589 -32.7574 -32.7574  -2.2853  -2.2707  -2.2707  -2.2156
    -2.2156   9.8182  12.0201  15.4715  15.4715  16.8576  17.0252  17.0252
    17.3721  17.3721  17.9590  18.1842  18.1842  19.5668  19.5668  19.8261
    19.8812  19.8812  23.1399  23.4117  23.4117  23.6608

          k = 0.0000 0.1925-0.0680 (  6531 PWs)   bands (ev):

   -74.9766 -74.9709 -66.6331 -38.3321 -38.3319 -38.3319 -38.3088 -38.3088
   -38.3087 -32.7580 -32.7576 -32.7576  -2.2826  -2.2786  -2.2786  -2.2250
    -2.2250   7.8091  14.9520  15.4760  15.4761  16.6251  16.6251  17.2342
    17.3411  17.3411  18.4732  18.7631  18.7631  19.6741  19.6741  20.0223
    20.0223  21.9825  23.4407  23.4407  23.4810  24.8627

          k = 0.0000 0.1925 0.1361 (  6527 PWs)   bands (ev):

   -74.9765 -74.9711 -66.6331 -38.3346 -38.3346 -38.3254 -38.3152 -38.3062
   -38.3062 -32.7582 -32.7575 -32.7575  -2.2878  -2.2748  -2.2748  -2.2280
    -2.2216   7.9308  14.7129  15.6384  15.6384  16.5995  16.6081  17.0073
    17.4128  17.4128  18.5436  18.5437  18.6896  19.6211  19.7034  19.9041
    20.0629  21.9980  22.3906  22.3906  24.0837  24.4079

          k = 0.0000 0.1925 0.3402 (  6529 PWs)   bands (ev):

   -74.9757 -74.9719 -66.6331 -38.3336 -38.3336 -38.3231 -38.3177 -38.3074
   -38.3074 -32.7586 -32.7575 -32.7574  -2.2897  -2.2703  -2.2686  -2.2269
    -2.2158   8.7403  13.8554  15.3127  15.7011  16.6149  16.8414  16.8450
    17.3247  17.4574  18.0900  18.1763  18.5820  19.5975  19.6910  19.7467
    19.9870  20.8349  21.5194  21.6812  23.6705  25.3723

          k = 0.0000 0.1925-0.6804 (  6545 PWs)   bands (ev):

   -74.9743 -74.9732 -66.6332 -38.3305 -38.3291 -38.3288 -38.3124 -38.3121
   -38.3106 -32.7587 -32.7577 -32.7573  -2.2853  -2.2714  -2.2662  -2.2223
    -2.2133   9.8690  12.5222  14.9041  15.6300  16.4770  16.9766  17.0932
    17.3975  17.5271  18.0077  18.0235  18.3079  19.5555  19.5939  19.7485
    19.8500  19.8866  21.2721  21.5750  23.4393  25.7805

          k = 0.0000 0.1925-0.4763 (  6552 PWs)   bands (ev):

   -74.9747 -74.9728 -66.6332 -38.3350 -38.3221 -38.3217 -38.3194 -38.3189
   -38.3061 -32.7586 -32.7577 -32.7574  -2.2818  -2.2737  -2.2689  -2.2190
    -2.2176   9.5222  12.9659  14.8978  15.4839  16.5356  17.0326  17.1025
    17.3004  17.5241  17.9814  18.1822  18.2587  19.5529  19.7265  19.7479
    19.8599  20.1438  21.2273  22.1045  23.3622  25.7770

          k = 0.0000 0.1925-0.2722 (  6545 PWs)   bands (ev):

   -74.9760 -74.9716 -66.6331 -38.3355 -38.3266 -38.3261 -38.3146 -38.3143
   -38.3054 -32.7583 -32.7576 -32.7575  -2.2835  -2.2751  -2.2738  -2.2234
    -2.2206   8.4023  14.2763  15.3845  15.3984  16.6251  16.9195  16.9809
    17.1753  17.4843  18.1834  18.3191  18.6079  19.6002  19.8037  19.8803
    19.9510  21.4469  21.5583  23.0530  23.4600  25.8140

          k = 0.0000 0.3849-0.1361 (  6549 PWs)   bands (ev):

   -74.9754 -74.9721 -66.6331 -38.3275 -38.3271 -38.3271 -38.3138 -38.3138
   -38.3136 -32.7586 -32.7575 -32.7575  -2.2844  -2.2730  -2.2730  -2.2191
    -2.2191   8.8427  13.3403  15.4653  15.4653  16.8966  16.9251  16.9251
    17.3174  17.3174  18.0704  18.3665  18.3665  19.6312  19.6312  19.9226
    19.9226  20.4868  23.1675  23.2935  23.2935  24.1527

          k = 0.0000 0.3849 0.0680 (  6529 PWs)   bands (ev):

   -74.9757 -74.9719 -66.6331 -38.3336 -38.3336 -38.3231 -38.3177 -38.3074
   -38.3074 -32.7586 -32.7575 -32.7574  -2.2897  -2.2703  -2.2686  -2.2269
    -2.2158   8.7403  13.8554  15.3127  15.7011  16.6149  16.8414  16.8450
    17.3247  17.4574  18.0900  18.1762  18.5820  19.5975  19.6910  19.7467
    19.9870  20.8350  21.5194  21.6812  23.6705  25.3723

          k = 0.0000 0.3849 0.2722 (  6534 PWs)   bands (ev):

   -74.9754 -74.9721 -66.6332 -38.3367 -38.3367 -38.3316 -38.3090 -38.3046
   -38.3046 -32.7592 -32.7572 -32.7572  -2.2999  -2.2610  -2.2610  -2.2344
    -2.2101   9.2716  13.4751  15.9814  15.9814  16.1743  16.1748  17.0377
    17.3938  17.3939  17.9728  17.9728  18.5953  19.4384  19.5869  19.6012
    19.9913  20.4313  20.6264  20.6264  23.2041  24.1185

          k = 0.0000 0.3849-0.7485 (  6543 PWs)   bands (ev):

   -74.9747 -74.9728 -66.6332 -38.3375 -38.3354 -38.3351 -38.3061 -38.3060
   -38.3034 -32.7592 -32.7574 -32.7571  -2.2983  -2.2607  -2.2579  -2.2346
    -2.2077  10.1648  12.9949  14.6656  15.8574  15.9986  16.9198  17.0539
    17.3257  17.6039  17.8166  17.9058  18.5430  19.4034  19.4901  19.6473
    19.8784  19.9564  20.1870  20.2288  23.4145  24.9756

          k = 0.0000 0.3849-0.5443 (  6557 PWs)   bands (ev):

   -74.9737 -74.9737 -66.6332 -38.3387 -38.3300 -38.3296 -38.3117 -38.3112
   -38.3023 -32.7586 -32.7580 -32.7572  -2.2859  -2.2700  -2.2613  -2.2272
    -2.2119  10.3305  13.3470  13.5262  15.7336  16.0425  16.9993  17.3524
    17.4010  17.5852  17.9325  18.0205  18.2263  19.4357  19.5986  19.6919
    19.8548  20.0689  20.1317  20.6772  23.4434  27.6469

          k = 0.0000 0.3849-0.3402 (  6552 PWs)   bands (ev):

   -74.9747 -74.9728 -66.6332 -38.3350 -38.3221 -38.3217 -38.3194 -38.3189
   -38.3061 -32.7586 -32.7577 -32.7574  -2.2818  -2.2737  -2.2689  -2.2190
    -2.2176   9.5222  12.9659  14.8978  15.4839  16.5356  17.0326  17.1025
    17.3004  17.5241  17.9814  18.1822  18.2587  19.5529  19.7265  19.7479
    19.8599  20.1438  21.2273  22.1046  23.3622  25.7764

          k = 0.0000-0.5774 0.2041 (  6550 PWs)   bands (ev):

   -74.9738 -74.9738 -66.6332 -38.3212 -38.3211 -38.3211 -38.3200 -38.3199
   -38.3199 -32.7589 -32.7574 -32.7574  -2.2853  -2.2707  -2.2707  -2.2156
    -2.2156   9.8182  12.0201  15.4715  15.4715  16.8576  17.0252  17.0252
    17.3720  17.3721  17.9590  18.1842  18.1842  19.5667  19.5667  19.8262
    19.8812  19.8812  23.1399  23.4117  23.4117  23.6608

          k = 0.0000-0.5774 0.4082 (  6545 PWs)   bands (ev):

   -74.9743 -74.9732 -66.6332 -38.3305 -38.3291 -38.3288 -38.3124 -38.3121
   -38.3106 -32.7587 -32.7577 -32.7573  -2.2853  -2.2714  -2.2662  -2.2223
    -2.2133   9.8690  12.5222  14.9041  15.6300  16.4770  16.9766  17.0931
    17.3975  17.5271  18.0077  18.0235  18.3079  19.5555  19.5939  19.7485
    19.8500  19.8866  21.2721  21.5750  23.4393  25.7804

          k = 0.0000-0.5774 0.6124 (  6543 PWs)   bands (ev):

   -74.9747 -74.9728 -66.6332 -38.3375 -38.3354 -38.3351 -38.3061 -38.3060
   -38.3034 -32.7592 -32.7574 -32.7571  -2.2983  -2.2607  -2.2579  -2.2346
    -2.2077  10.1648  12.9949  14.6656  15.8574  15.9986  16.9198  17.0539
    17.3257  17.6039  17.8166  17.9058  18.5430  19.4034  19.4901  19.6473
    19.8784  19.9564  20.1870  20.2288  23.4145  24.9756

          k = 0.0000-0.5774-0.4082 (  6526 PWs)   bands (ev):

   -74.9748 -74.9727 -66.6332 -38.3398 -38.3377 -38.3377 -38.3038 -38.3038
   -38.3008 -32.7597 -32.7570 -32.7570  -2.3061  -2.2543  -2.2543  -2.2403
    -2.2043  10.4605  12.6097  15.4502  15.7902  16.2258  16.2258  17.2425
    17.2425  17.3404  17.9259  17.9259  18.6371  19.1154  19.4770  19.5912
    19.8360  19.8360  19.8883  20.0910  23.1022  24.0742

          k = 0.1667 0.2887-0.2041 (  6529 PWs)   bands (ev):

   -74.9757 -74.9719 -66.6331 -38.3336 -38.3336 -38.3231 -38.3177 -38.3074
   -38.3074 -32.7586 -32.7575 -32.7574  -2.2897  -2.2703  -2.2686  -2.2269
    -2.2158   8.7403  13.8554  15.3127  15.7011  16.6149  16.8414  16.8450
    17.3247  17.4574  18.0900  18.1762  18.5820  19.5975  19.6910  19.7467
    19.9870  20.8350  21.5194  21.6812  23.6705  25.3723

          k = 0.1667 0.2887-0.0000 (  6545 PWs)   bands (ev):

   -74.9760 -74.9716 -66.6331 -38.3355 -38.3266 -38.3261 -38.3146 -38.3143
   -38.3054 -32.7583 -32.7576 -32.7575  -2.2835  -2.2751  -2.2738  -2.2234
    -2.2206   8.4023  14.2763  15.3845  15.3984  16.6251  16.9195  16.9810
    17.1752  17.4843  18.1834  18.3192  18.6079  19.6002  19.8037  19.8803
    19.9510  21.4469  21.5583  23.0530  23.4600  25.8111

          k = 0.1667 0.2887-0.8165 (  6564 PWs)   bands (ev):

   -74.9748 -74.9727 -66.6332 -38.3374 -38.3310 -38.3283 -38.3130 -38.3098
   -38.3038 -32.7588 -32.7577 -32.7573  -2.2892  -2.2700  -2.2619  -2.2280
    -2.2123   9.6333  13.3623  14.7040  15.4411  16.4268  16.9669  17.0795
    17.2231  17.6771  17.8744  17.9942  18.4642  19.5574  19.5957  19.7162
    19.8929  20.3171  20.4881  20.7749  24.4644  25.4457

          k = 0.1667 0.2887-0.6124 (  6554 PWs)   bands (ev):

   -74.9737 -74.9737 -66.6332 -38.3372 -38.3355 -38.3209 -38.3206 -38.3048
   -38.3047 -32.7585 -32.7581 -32.7572  -2.2809  -2.2778  -2.2586  -2.2274
    -2.2116  10.3399  12.9696  14.1190  15.2946  16.3110  17.0839  17.1032
    17.4066  17.6919  17.9260  17.9427  18.3212  19.5264  19.5621  19.6641
    19.8326  19.8813  20.3689  20.4151  24.6374  25.5898

          k = 0.1667-0.6736 0.1361 (  6545 PWs)   bands (ev):

   -74.9743 -74.9732 -66.6332 -38.3305 -38.3291 -38.3288 -38.3123 -38.3121
   -38.3106 -32.7587 -32.7577 -32.7573  -2.2853  -2.2714  -2.2662  -2.2223
    -2.2133   9.8690  12.5222  14.9041  15.6300  16.4770  16.9766  17.0931
    17.3975  17.5271  18.0077  18.0235  18.3079  19.5555  19.5939  19.7485
    19.8500  19.8866  21.2721  21.5750  23.4393  25.7804

          k = 0.1667-0.6736 0.3402 (  6552 PWs)   bands (ev):

   -74.9747 -74.9728 -66.6332 -38.3350 -38.3221 -38.3217 -38.3194 -38.3189
   -38.3061 -32.7586 -32.7577 -32.7574  -2.2818  -2.2737  -2.2689  -2.2190
    -2.2176   9.5222  12.9660  14.8978  15.4839  16.5356  17.0326  17.1025
    17.3004  17.5241  17.9814  18.1822  18.2587  19.5529  19.7265  19.7479
    19.8599  20.1438  21.2273  22.1045  23.3622  25.7762

          k = 0.1667-0.6736 0.5443 (  6564 PWs)   bands (ev):

   -74.9748 -74.9727 -66.6332 -38.3374 -38.3310 -38.3283 -38.3130 -38.3098
   -38.3038 -32.7588 -32.7577 -32.7573  -2.2892  -2.2700  -2.2619  -2.2280
    -2.2123   9.6333  13.3623  14.7040  15.4411  16.4269  16.9669  17.0795
    17.2230  17.6771  17.8744  17.9942  18.4642  19.5574  19.5957  19.7161
    19.8929  20.3171  20.4881  20.7749  24.4644  25.4457

          k = 0.1667-0.6736-0.4763 (  6543 PWs)   bands (ev):

   -74.9747 -74.9728 -66.6332 -38.3375 -38.3354 -38.3351 -38.3061 -38.3060
   -38.3034 -32.7592 -32.7574 -32.7571  -2.2983  -2.2607  -2.2579  -2.2346
    -2.2077  10.1648  12.9949  14.6656  15.8574  15.9986  16.9198  17.0539
    17.3257  17.6039  17.8166  17.9058  18.5430  19.4034  19.4901  19.6473
    19.8784  19.9564  20.1870  20.2288  23.4145  24.9756

          k = 0.1667-0.6736-0.2722 (  6574 PWs)   bands (ev):

   -74.9743 -74.9732 -66.6332 -38.3398 -38.3377 -38.3292 -38.3123 -38.3030
   -38.3015 -32.7590 -32.7577 -32.7571  -2.2932  -2.2672  -2.2543  -2.2339
    -2.2081  10.5531  13.0808  14.3594  14.8286  16.4184  17.0611  17.0883
    17.3058  17.6937  17.7988  17.9053  18.4800  19.4535  19.5402  19.6509
    19.7919  19.8941  19.9341  19.9723  24.3732  25.2864

          k = 0.1667-0.6736-0.0680 (  6554 PWs)   bands (ev):

   -74.9737 -74.9737 -66.6332 -38.3372 -38.3355 -38.3209 -38.3206 -38.3048
   -38.3047 -32.7585 -32.7581 -32.7572  -2.2809  -2.2778  -2.2586  -2.2274
    -2.2116  10.3399  12.9696  14.1190  15.2946  16.3110  17.0839  17.1032
    17.4066  17.6919  17.9259  17.9427  18.3212  19.5264  19.5621  19.6641
    19.8326  19.8813  20.3690  20.4151  24.6375  25.5898

          k = 0.3333-0.5774 0.0000 (  6557 PWs)   bands (ev):

   -74.9737 -74.9737 -66.6332 -38.3387 -38.3300 -38.3296 -38.3117 -38.3112
   -38.3023 -32.7586 -32.7580 -32.7572  -2.2859  -2.2700  -2.2613  -2.2272
    -2.2119  10.3305  13.3470  13.5262  15.7336  16.0426  16.9993  17.3524
    17.4010  17.5851  17.9325  18.0205  18.2264  19.4357  19.5986  19.6919
    19.8548  20.0689  20.1317  20.6772  23.4434  27.6469

          k = 0.3333-0.5774 0.2041 (  6554 PWs)   bands (ev):

   -74.9737 -74.9737 -66.6332 -38.3372 -38.3355 -38.3209 -38.3206 -38.3048
   -38.3047 -32.7585 -32.7581 -32.7572  -2.2809  -2.2778  -2.2586  -2.2274
    -2.2116  10.3399  12.9696  14.1190  15.2946  16.3110  17.0839  17.1032
    17.4066  17.6919  17.9260  17.9427  18.3212  19.5264  19.5621  19.6641
    19.8326  19.8813  20.3690  20.4151  24.6375  25.5898

     the Fermi energy is    19.3501 ev

!    total energy              =   -1524.77664988 Ry
     total all-electron energy =    -20474.057661 Ry
     estimated scf accuracy    <          3.5E-10 Ry
     smearing contrib. (-TS)   =      -0.00892462 Ry
     internal energy E=F+TS    =   -1524.76772526 Ry

     The total energy is F=E-TS. E is the sum of the following terms:
     one-electron contribution =    -441.53081253 Ry
     hartree contribution      =     270.95346556 Ry
     xc contribution           =    -137.83758840 Ry
     ewald contribution        =    -677.45861314 Ry
     one-center paw contrib.   =    -538.89417675 Ry

     total magnetization       =     5.34 Bohr mag/cell
     absolute magnetization    =     5.62 Bohr mag/cell

     convergence has been achieved in  27 iterations

     negative rho (up, down):  0.000E+00 1.643E-04

     Forces acting on atoms (cartesian axes, Ry/au):

     atom    1 type  2   force =     0.00000000    0.00000000    0.00000000
     atom    2 type  3   force =     0.00000000    0.00000000   -0.00000000
     atom    3 type  1   force =     0.00000000    0.00000000    0.00000148
     atom    4 type  1   force =    -0.00000000    0.00000000   -0.00000148

     Total force =     0.000002     Total SCF correction =     0.000007
     SCF correction compared to forces is large: reduce conv_thr to get better values


     Computing stress (Cartesian axis) and pressure


     negative rho (up, down):  0.000E+00 1.643E-04
          total   stress  (Ry/bohr**3)                   (kbar)     P=      148.72
   0.00101099   0.00000000   0.00000000          148.72        0.00        0.00
   0.00000000   0.00101099  -0.00000000            0.00      148.72       -0.00
   0.00000000  -0.00000000   0.00101098            0.00       -0.00      148.72


     Writing all to output data dir ./outdir/Co2FeSn.save/
 
     init_run     :      1.50s CPU      1.57s WALL (       1 calls)
     electrons    :     96.90s CPU     99.23s WALL (       1 calls)
     forces       :      0.43s CPU      0.44s WALL (       1 calls)
     stress       :      0.99s CPU      0.99s WALL (       1 calls)

     Called by init_run:
     wfcinit      :      0.95s CPU      0.98s WALL (       1 calls)
     potinit      :      0.21s CPU      0.22s WALL (       1 calls)
     hinit0       :      0.17s CPU      0.17s WALL (       1 calls)

     Called by electrons:
     c_bands      :     75.42s CPU     77.28s WALL (      27 calls)
     sum_band     :     14.44s CPU     14.81s WALL (      27 calls)
     v_of_rho     :      0.89s CPU      0.91s WALL (      28 calls)
     newd         :      2.15s CPU      2.17s WALL (      28 calls)
     PAW_pot      :      4.00s CPU      4.02s WALL (      28 calls)
     mix_rho      :      0.14s CPU      0.14s WALL (      27 calls)

     Called by c_bands:
     init_us_2    :      0.74s CPU      0.78s WALL (    3648 calls)
     init_us_2:cp :      0.73s CPU      0.77s WALL (    3648 calls)
     cegterg      :     72.27s CPU     73.98s WALL (    1728 calls)

     Called by *egterg:
     cdiaghg      :     12.74s CPU     12.83s WALL (    7559 calls)
     h_psi        :     48.27s CPU     49.81s WALL (    7623 calls)
     s_psi        :      1.96s CPU      1.99s WALL (    7623 calls)
     g_psi        :      0.25s CPU      0.25s WALL (    5831 calls)

     Called by h_psi:
     h_psi:calbec :      2.89s CPU      2.98s WALL (    7623 calls)
     vloc_psi     :     42.71s CPU     44.12s WALL (    7623 calls)
     add_vuspsi   :      2.31s CPU      2.36s WALL (    7623 calls)

     General routines
     calbec       :      3.91s CPU      4.04s WALL (    9671 calls)
     fft          :      0.36s CPU      0.36s WALL (     738 calls)
     ffts         :      0.02s CPU      0.02s WALL (     110 calls)
     fftw         :     47.14s CPU     48.74s WALL (  395004 calls)
     interpolate  :      0.04s CPU      0.05s WALL (      56 calls)
 
     Parallel routines
 
     PWSCF        :   1m40.78s CPU   1m43.83s WALL

 
   This run was terminated on:  23:37: 3   8Oct2025            

=------------------------------------------------------------------------------=
   JOB DONE.
=------------------------------------------------------------------------------=
